+ 0.1 6 8 cbr 210 ------- 3 6.1 8.0 0 1
- 0.1 6 8 cbr 210 ------- 3 6.1 8.0 0 1
r 0.101168 6 8 cbr 210 ------- 3 6.1 8.0 0 1
+ 0.10375 6 8 cbr 210 ------- 3 6.1 8.0 1 3
- 0.10375 6 8 cbr 210 ------- 3 6.1 8.0 1 3
r 0.104918 6 8 cbr 210 ------- 3 6.1 8.0 1 3
+ 0.1075 6 8 cbr 210 ------- 3 6.1 8.0 2 5
- 0.1075 6 8 cbr 210 ------- 3 6.1 8.0 2 5
r 0.108668 6 8 cbr 210 ------- 3 6.1 8.0 2 5
+ 0.11125 6 8 cbr 210 ------- 3 6.1 8.0 3 7
- 0.11125 6 8 cbr 210 ------- 3 6.1 8.0 3 7
r 0.112418 6 8 cbr 210 ------- 3 6.1 8.0 3 7
+ 0.115 6 8 cbr 210 ------- 3 6.1 8.0 4 9
- 0.115 6 8 cbr 210 ------- 3 6.1 8.0 4 9
r 0.116168 6 8 cbr 210 ------- 3 6.1 8.0 4 9
+ 0.11875 6 8 cbr 210 ------- 3 6.1 8.0 5 11
- 0.11875 6 8 cbr 210 ------- 3 6.1 8.0 5 11
r 0.119918 6 8 cbr 210 ------- 3 6.1 8.0 5 11
+ 0.1225 6 8 cbr 210 ------- 3 6.1 8.0 6 13
- 0.1225 6 8 cbr 210 ------- 3 6.1 8.0 6 13
r 0.123668 6 8 cbr 210 ------- 3 6.1 8.0 6 13
+ 0.12625 6 8 cbr 210 ------- 3 6.1 8.0 7 15
- 0.12625 6 8 cbr 210 ------- 3 6.1 8.0 7 15
r 0.127418 6 8 cbr 210 ------- 3 6.1 8.0 7 15
+ 0.13 6 8 cbr 210 ------- 3 6.1 8.0 8 17
- 0.13 6 8 cbr 210 ------- 3 6.1 8.0 8 17
r 0.131168 6 8 cbr 210 ------- 3 6.1 8.0 8 17
+ 0.13375 6 8 cbr 210 ------- 3 6.1 8.0 9 19
- 0.13375 6 8 cbr 210 ------- 3 6.1 8.0 9 19
r 0.134918 6 8 cbr 210 ------- 3 6.1 8.0 9 19
+ 0.1375 6 8 cbr 210 ------- 3 6.1 8.0 10 21
- 0.1375 6 8 cbr 210 ------- 3 6.1 8.0 10 21
r 0.138668 6 8 cbr 210 ------- 3 6.1 8.0 10 21
+ 0.14125 6 8 cbr 210 ------- 3 6.1 8.0 11 23
- 0.14125 6 8 cbr 210 ------- 3 6.1 8.0 11 23
r 0.142418 6 8 cbr 210 ------- 3 6.1 8.0 11 23
+ 0.145 6 8 cbr 210 ------- 3 6.1 8.0 12 25
- 0.145 6 8 cbr 210 ------- 3 6.1 8.0 12 25
r 0.146168 6 8 cbr 210 ------- 3 6.1 8.0 12 25
+ 0.14875 6 8 cbr 210 ------- 3 6.1 8.0 13 27
- 0.14875 6 8 cbr 210 ------- 3 6.1 8.0 13 27
r 0.149918 6 8 cbr 210 ------- 3 6.1 8.0 13 27
+ 0.1525 6 8 cbr 210 ------- 3 6.1 8.0 14 29
- 0.1525 6 8 cbr 210 ------- 3 6.1 8.0 14 29
r 0.153668 6 8 cbr 210 ------- 3 6.1 8.0 14 29
+ 0.15625 6 8 cbr 210 ------- 3 6.1 8.0 15 31
- 0.15625 6 8 cbr 210 ------- 3 6.1 8.0 15 31
r 0.157418 6 8 cbr 210 ------- 3 6.1 8.0 15 31
+ 0.16 6 8 cbr 210 ------- 3 6.1 8.0 16 33
- 0.16 6 8 cbr 210 ------- 3 6.1 8.0 16 33
r 0.161168 6 8 cbr 210 ------- 3 6.1 8.0 16 33
+ 0.16375 6 8 cbr 210 ------- 3 6.1 8.0 17 35
- 0.16375 6 8 cbr 210 ------- 3 6.1 8.0 17 35
r 0.164918 6 8 cbr 210 ------- 3 6.1 8.0 17 35
+ 0.1675 6 8 cbr 210 ------- 3 6.1 8.0 18 37
- 0.1675 6 8 cbr 210 ------- 3 6.1 8.0 18 37
r 0.168668 6 8 cbr 210 ------- 3 6.1 8.0 18 37
+ 0.17125 6 8 cbr 210 ------- 3 6.1 8.0 19 39
- 0.17125 6 8 cbr 210 ------- 3 6.1 8.0 19 39
r 0.172418 6 8 cbr 210 ------- 3 6.1 8.0 19 39
+ 0.175 6 8 cbr 210 ------- 3 6.1 8.0 20 41
- 0.175 6 8 cbr 210 ------- 3 6.1 8.0 20 41
r 0.176168 6 8 cbr 210 ------- 3 6.1 8.0 20 41
+ 0.17875 6 8 cbr 210 ------- 3 6.1 8.0 21 43
- 0.17875 6 8 cbr 210 ------- 3 6.1 8.0 21 43
r 0.179918 6 8 cbr 210 ------- 3 6.1 8.0 21 43
+ 0.1825 6 8 cbr 210 ------- 3 6.1 8.0 22 45
- 0.1825 6 8 cbr 210 ------- 3 6.1 8.0 22 45
r 0.183668 6 8 cbr 210 ------- 3 6.1 8.0 22 45
+ 0.18625 6 8 cbr 210 ------- 3 6.1 8.0 23 47
- 0.18625 6 8 cbr 210 ------- 3 6.1 8.0 23 47
r 0.187418 6 8 cbr 210 ------- 3 6.1 8.0 23 47
+ 0.19 6 8 cbr 210 ------- 3 6.1 8.0 24 49
- 0.19 6 8 cbr 210 ------- 3 6.1 8.0 24 49
r 0.191168 6 8 cbr 210 ------- 3 6.1 8.0 24 49
+ 0.19375 6 8 cbr 210 ------- 3 6.1 8.0 25 51
- 0.19375 6 8 cbr 210 ------- 3 6.1 8.0 25 51
r 0.194918 6 8 cbr 210 ------- 3 6.1 8.0 25 51
+ 0.1975 6 8 cbr 210 ------- 3 6.1 8.0 26 53
- 0.1975 6 8 cbr 210 ------- 3 6.1 8.0 26 53
r 0.198668 6 8 cbr 210 ------- 3 6.1 8.0 26 53
+ 0.2 0 6 tcp 40 ------- 1 0.0 6.0 0 54
- 0.2 0 6 tcp 40 ------- 1 0.0 6.0 0 54
r 0.201032 0 6 tcp 40 ------- 1 0.0 6.0 0 54
+ 0.201032 6 0 ack 40 ------- 1 6.0 0.0 0 55
- 0.201032 6 0 ack 40 ------- 1 6.0 0.0 0 55
+ 0.20125 6 8 cbr 210 ------- 3 6.1 8.0 27 57
- 0.20125 6 8 cbr 210 ------- 3 6.1 8.0 27 57
r 0.202064 6 0 ack 40 ------- 1 6.0 0.0 0 55
+ 0.202064 0 6 tcp 1040 ------- 1 0.0 6.0 1 58
- 0.202064 0 6 tcp 1040 ------- 1 0.0 6.0 1 58
+ 0.202064 0 6 tcp 1040 ------- 1 0.0 6.0 2 59
r 0.202418 6 8 cbr 210 ------- 3 6.1 8.0 27 57
- 0.202896 0 6 tcp 1040 ------- 1 0.0 6.0 2 59
r 0.203896 0 6 tcp 1040 ------- 1 0.0 6.0 1 58
+ 0.203896 6 0 ack 40 ------- 1 6.0 0.0 1 60
- 0.203896 6 0 ack 40 ------- 1 6.0 0.0 1 60
r 0.204728 0 6 tcp 1040 ------- 1 0.0 6.0 2 59
+ 0.204728 6 0 ack 40 ------- 1 6.0 0.0 2 61
- 0.204728 6 0 ack 40 ------- 1 6.0 0.0 2 61
r 0.204928 6 0 ack 40 ------- 1 6.0 0.0 1 60
+ 0.204928 0 6 tcp 1040 ------- 1 0.0 6.0 3 62
- 0.204928 0 6 tcp 1040 ------- 1 0.0 6.0 3 62
+ 0.204928 0 6 tcp 1040 ------- 1 0.0 6.0 4 63
+ 0.205 6 8 cbr 210 ------- 3 6.1 8.0 28 65
- 0.205 6 8 cbr 210 ------- 3 6.1 8.0 28 65
r 0.20576 6 0 ack 40 ------- 1 6.0 0.0 2 61
+ 0.20576 0 6 tcp 1040 ------- 1 0.0 6.0 5 66
+ 0.20576 0 6 tcp 1040 ------- 1 0.0 6.0 6 67
- 0.20576 0 6 tcp 1040 ------- 1 0.0 6.0 4 63
r 0.206168 6 8 cbr 210 ------- 3 6.1 8.0 28 65
- 0.206592 0 6 tcp 1040 ------- 1 0.0 6.0 5 66
r 0.20676 0 6 tcp 1040 ------- 1 0.0 6.0 3 62
+ 0.20676 6 0 ack 40 ------- 1 6.0 0.0 3 68
- 0.20676 6 0 ack 40 ------- 1 6.0 0.0 3 68
- 0.207424 0 6 tcp 1040 ------- 1 0.0 6.0 6 67
r 0.207592 0 6 tcp 1040 ------- 1 0.0 6.0 4 63
+ 0.207592 6 0 ack 40 ------- 1 6.0 0.0 4 69
- 0.207592 6 0 ack 40 ------- 1 6.0 0.0 4 69
r 0.207792 6 0 ack 40 ------- 1 6.0 0.0 3 68
+ 0.207792 0 6 tcp 1040 ------- 1 0.0 6.0 7 70
+ 0.207792 0 6 tcp 1040 ------- 1 0.0 6.0 8 71
- 0.208256 0 6 tcp 1040 ------- 1 0.0 6.0 7 70
r 0.208424 0 6 tcp 1040 ------- 1 0.0 6.0 5 66
+ 0.208424 6 0 ack 40 ------- 1 6.0 0.0 5 72
- 0.208424 6 0 ack 40 ------- 1 6.0 0.0 5 72
r 0.208624 6 0 ack 40 ------- 1 6.0 0.0 4 69
+ 0.208624 0 6 tcp 1040 ------- 1 0.0 6.0 9 73
+ 0.208624 0 6 tcp 1040 ------- 1 0.0 6.0 10 74
+ 0.20875 6 8 cbr 210 ------- 3 6.1 8.0 29 76
- 0.20875 6 8 cbr 210 ------- 3 6.1 8.0 29 76
- 0.209088 0 6 tcp 1040 ------- 1 0.0 6.0 8 71
r 0.209256 0 6 tcp 1040 ------- 1 0.0 6.0 6 67
+ 0.209256 6 0 ack 40 ------- 1 6.0 0.0 6 77
- 0.209256 6 0 ack 40 ------- 1 6.0 0.0 6 77
r 0.209456 6 0 ack 40 ------- 1 6.0 0.0 5 72
+ 0.209456 0 6 tcp 1040 ------- 1 0.0 6.0 11 78
+ 0.209456 0 6 tcp 1040 ------- 1 0.0 6.0 12 79
r 0.209918 6 8 cbr 210 ------- 3 6.1 8.0 29 76
- 0.20992 0 6 tcp 1040 ------- 1 0.0 6.0 9 73
r 0.210088 0 6 tcp 1040 ------- 1 0.0 6.0 7 70
+ 0.210088 6 0 ack 40 ------- 1 6.0 0.0 7 80
- 0.210088 6 0 ack 40 ------- 1 6.0 0.0 7 80
r 0.210288 6 0 ack 40 ------- 1 6.0 0.0 6 77
+ 0.210288 0 6 tcp 1040 ------- 1 0.0 6.0 13 81
+ 0.210288 0 6 tcp 1040 ------- 1 0.0 6.0 14 82
- 0.210752 0 6 tcp 1040 ------- 1 0.0 6.0 10 74
r 0.21092 0 6 tcp 1040 ------- 1 0.0 6.0 8 71
+ 0.21092 6 0 ack 40 ------- 1 6.0 0.0 8 83
- 0.21092 6 0 ack 40 ------- 1 6.0 0.0 8 83
r 0.21112 6 0 ack 40 ------- 1 6.0 0.0 7 80
+ 0.21112 0 6 tcp 1040 ------- 1 0.0 6.0 15 84
+ 0.21112 0 6 tcp 1040 ------- 1 0.0 6.0 16 85
- 0.211584 0 6 tcp 1040 ------- 1 0.0 6.0 11 78
r 0.211752 0 6 tcp 1040 ------- 1 0.0 6.0 9 73
+ 0.211752 6 0 ack 40 ------- 1 6.0 0.0 9 86
- 0.211752 6 0 ack 40 ------- 1 6.0 0.0 9 86
r 0.211952 6 0 ack 40 ------- 1 6.0 0.0 8 83
+ 0.211952 0 6 tcp 1040 ------- 1 0.0 6.0 17 87
+ 0.211952 0 6 tcp 1040 ------- 1 0.0 6.0 18 88
- 0.212416 0 6 tcp 1040 ------- 1 0.0 6.0 12 79
+ 0.2125 6 8 cbr 210 ------- 3 6.1 8.0 30 90
- 0.2125 6 8 cbr 210 ------- 3 6.1 8.0 30 90
r 0.212584 0 6 tcp 1040 ------- 1 0.0 6.0 10 74
+ 0.212584 6 0 ack 40 ------- 1 6.0 0.0 10 91
- 0.212584 6 0 ack 40 ------- 1 6.0 0.0 10 91
r 0.212784 6 0 ack 40 ------- 1 6.0 0.0 9 86
+ 0.212784 0 6 tcp 1040 ------- 1 0.0 6.0 19 92
+ 0.212784 0 6 tcp 1040 ------- 1 0.0 6.0 20 93
- 0.213248 0 6 tcp 1040 ------- 1 0.0 6.0 13 81
r 0.213416 0 6 tcp 1040 ------- 1 0.0 6.0 11 78
+ 0.213416 6 0 ack 40 ------- 1 6.0 0.0 11 94
- 0.213416 6 0 ack 40 ------- 1 6.0 0.0 11 94
r 0.213616 6 0 ack 40 ------- 1 6.0 0.0 10 91
+ 0.213616 0 6 tcp 1040 ------- 1 0.0 6.0 21 95
+ 0.213616 0 6 tcp 1040 ------- 1 0.0 6.0 22 96
r 0.213668 6 8 cbr 210 ------- 3 6.1 8.0 30 90
- 0.21408 0 6 tcp 1040 ------- 1 0.0 6.0 14 82
r 0.214248 0 6 tcp 1040 ------- 1 0.0 6.0 12 79
+ 0.214248 6 0 ack 40 ------- 1 6.0 0.0 12 97
- 0.214248 6 0 ack 40 ------- 1 6.0 0.0 12 97
r 0.214448 6 0 ack 40 ------- 1 6.0 0.0 11 94
+ 0.214448 0 6 tcp 1040 ------- 1 0.0 6.0 23 98
+ 0.214448 0 6 tcp 1040 ------- 1 0.0 6.0 24 99
- 0.214912 0 6 tcp 1040 ------- 1 0.0 6.0 15 84
r 0.21508 0 6 tcp 1040 ------- 1 0.0 6.0 13 81
+ 0.21508 6 0 ack 40 ------- 1 6.0 0.0 13 100
- 0.21508 6 0 ack 40 ------- 1 6.0 0.0 13 100
r 0.21528 6 0 ack 40 ------- 1 6.0 0.0 12 97
+ 0.21528 0 6 tcp 1040 ------- 1 0.0 6.0 25 101
+ 0.21528 0 6 tcp 1040 ------- 1 0.0 6.0 26 102
- 0.215744 0 6 tcp 1040 ------- 1 0.0 6.0 16 85
r 0.215912 0 6 tcp 1040 ------- 1 0.0 6.0 14 82
+ 0.215912 6 0 ack 40 ------- 1 6.0 0.0 14 103
- 0.215912 6 0 ack 40 ------- 1 6.0 0.0 14 103
r 0.216112 6 0 ack 40 ------- 1 6.0 0.0 13 100
+ 0.216112 0 6 tcp 1040 ------- 1 0.0 6.0 27 104
+ 0.216112 0 6 tcp 1040 ------- 1 0.0 6.0 28 105
+ 0.21625 6 8 cbr 210 ------- 3 6.1 8.0 31 107
- 0.21625 6 8 cbr 210 ------- 3 6.1 8.0 31 107
- 0.216576 0 6 tcp 1040 ------- 1 0.0 6.0 17 87
r 0.216744 0 6 tcp 1040 ------- 1 0.0 6.0 15 84
+ 0.216744 6 0 ack 40 ------- 1 6.0 0.0 15 108
- 0.216744 6 0 ack 40 ------- 1 6.0 0.0 15 108
r 0.216944 6 0 ack 40 ------- 1 6.0 0.0 14 103
+ 0.216944 0 6 tcp 1040 ------- 1 0.0 6.0 29 109
+ 0.216944 0 6 tcp 1040 ------- 1 0.0 6.0 30 110
- 0.217408 0 6 tcp 1040 ------- 1 0.0 6.0 18 88
r 0.217418 6 8 cbr 210 ------- 3 6.1 8.0 31 107
r 0.217576 0 6 tcp 1040 ------- 1 0.0 6.0 16 85
+ 0.217576 6 0 ack 40 ------- 1 6.0 0.0 16 111
- 0.217576 6 0 ack 40 ------- 1 6.0 0.0 16 111
r 0.217776 6 0 ack 40 ------- 1 6.0 0.0 15 108
+ 0.217776 0 6 tcp 1040 ------- 1 0.0 6.0 31 112
+ 0.217776 0 6 tcp 1040 ------- 1 0.0 6.0 32 113
- 0.21824 0 6 tcp 1040 ------- 1 0.0 6.0 19 92
r 0.218408 0 6 tcp 1040 ------- 1 0.0 6.0 17 87
+ 0.218408 6 0 ack 40 ------- 1 6.0 0.0 17 114
- 0.218408 6 0 ack 40 ------- 1 6.0 0.0 17 114
r 0.218608 6 0 ack 40 ------- 1 6.0 0.0 16 111
+ 0.218608 0 6 tcp 1040 ------- 1 0.0 6.0 33 115
+ 0.218608 0 6 tcp 1040 ------- 1 0.0 6.0 34 116
- 0.219072 0 6 tcp 1040 ------- 1 0.0 6.0 20 93
r 0.21924 0 6 tcp 1040 ------- 1 0.0 6.0 18 88
+ 0.21924 6 0 ack 40 ------- 1 6.0 0.0 18 117
- 0.21924 6 0 ack 40 ------- 1 6.0 0.0 18 117
r 0.21944 6 0 ack 40 ------- 1 6.0 0.0 17 114
+ 0.21944 0 6 tcp 1040 ------- 1 0.0 6.0 35 118
+ 0.21944 0 6 tcp 1040 ------- 1 0.0 6.0 36 119
- 0.219904 0 6 tcp 1040 ------- 1 0.0 6.0 21 95
+ 0.22 6 8 cbr 210 ------- 3 6.1 8.0 32 121
- 0.22 6 8 cbr 210 ------- 3 6.1 8.0 32 121
r 0.220072 0 6 tcp 1040 ------- 1 0.0 6.0 19 92
+ 0.220072 6 0 ack 40 ------- 1 6.0 0.0 19 122
- 0.220072 6 0 ack 40 ------- 1 6.0 0.0 19 122
r 0.220272 6 0 ack 40 ------- 1 6.0 0.0 18 117
+ 0.220272 0 6 tcp 1040 ------- 1 0.0 6.0 37 123
+ 0.220272 0 6 tcp 1040 ------- 1 0.0 6.0 38 124
- 0.220736 0 6 tcp 1040 ------- 1 0.0 6.0 22 96
r 0.220904 0 6 tcp 1040 ------- 1 0.0 6.0 20 93
+ 0.220904 6 0 ack 40 ------- 1 6.0 0.0 20 125
- 0.220904 6 0 ack 40 ------- 1 6.0 0.0 20 125
r 0.221104 6 0 ack 40 ------- 1 6.0 0.0 19 122
+ 0.221104 0 6 tcp 1040 ------- 1 0.0 6.0 39 126
r 0.221168 6 8 cbr 210 ------- 3 6.1 8.0 32 121
- 0.221568 0 6 tcp 1040 ------- 1 0.0 6.0 23 98
r 0.221736 0 6 tcp 1040 ------- 1 0.0 6.0 21 95
+ 0.221736 6 0 ack 40 ------- 1 6.0 0.0 21 127
- 0.221736 6 0 ack 40 ------- 1 6.0 0.0 21 127
r 0.221936 6 0 ack 40 ------- 1 6.0 0.0 20 125
+ 0.221936 0 6 tcp 1040 ------- 1 0.0 6.0 40 128
- 0.2224 0 6 tcp 1040 ------- 1 0.0 6.0 24 99
r 0.222568 0 6 tcp 1040 ------- 1 0.0 6.0 22 96
+ 0.222568 6 0 ack 40 ------- 1 6.0 0.0 22 129
- 0.222568 6 0 ack 40 ------- 1 6.0 0.0 22 129
r 0.222768 6 0 ack 40 ------- 1 6.0 0.0 21 127
+ 0.222768 0 6 tcp 1040 ------- 1 0.0 6.0 41 130
- 0.223232 0 6 tcp 1040 ------- 1 0.0 6.0 25 101
r 0.2234 0 6 tcp 1040 ------- 1 0.0 6.0 23 98
+ 0.2234 6 0 ack 40 ------- 1 6.0 0.0 23 131
- 0.2234 6 0 ack 40 ------- 1 6.0 0.0 23 131
r 0.2236 6 0 ack 40 ------- 1 6.0 0.0 22 129
+ 0.2236 0 6 tcp 1040 ------- 1 0.0 6.0 42 132
+ 0.22375 6 8 cbr 210 ------- 3 6.1 8.0 33 134
- 0.22375 6 8 cbr 210 ------- 3 6.1 8.0 33 134
- 0.224064 0 6 tcp 1040 ------- 1 0.0 6.0 26 102
r 0.224232 0 6 tcp 1040 ------- 1 0.0 6.0 24 99
+ 0.224232 6 0 ack 40 ------- 1 6.0 0.0 24 135
- 0.224232 6 0 ack 40 ------- 1 6.0 0.0 24 135
r 0.224432 6 0 ack 40 ------- 1 6.0 0.0 23 131
+ 0.224432 0 6 tcp 1040 ------- 1 0.0 6.0 43 136
- 0.224896 0 6 tcp 1040 ------- 1 0.0 6.0 27 104
r 0.224918 6 8 cbr 210 ------- 3 6.1 8.0 33 134
r 0.225064 0 6 tcp 1040 ------- 1 0.0 6.0 25 101
+ 0.225064 6 0 ack 40 ------- 1 6.0 0.0 25 137
- 0.225064 6 0 ack 40 ------- 1 6.0 0.0 25 137
r 0.225264 6 0 ack 40 ------- 1 6.0 0.0 24 135
+ 0.225264 0 6 tcp 1040 ------- 1 0.0 6.0 44 138
- 0.225728 0 6 tcp 1040 ------- 1 0.0 6.0 28 105
r 0.225896 0 6 tcp 1040 ------- 1 0.0 6.0 26 102
+ 0.225896 6 0 ack 40 ------- 1 6.0 0.0 26 139
- 0.225896 6 0 ack 40 ------- 1 6.0 0.0 26 139
r 0.226096 6 0 ack 40 ------- 1 6.0 0.0 25 137
+ 0.226096 0 6 tcp 1040 ------- 1 0.0 6.0 45 140
- 0.22656 0 6 tcp 1040 ------- 1 0.0 6.0 29 109
r 0.226728 0 6 tcp 1040 ------- 1 0.0 6.0 27 104
+ 0.226728 6 0 ack 40 ------- 1 6.0 0.0 27 141
- 0.226728 6 0 ack 40 ------- 1 6.0 0.0 27 141
r 0.226928 6 0 ack 40 ------- 1 6.0 0.0 26 139
+ 0.226928 0 6 tcp 1040 ------- 1 0.0 6.0 46 142
- 0.227392 0 6 tcp 1040 ------- 1 0.0 6.0 30 110
+ 0.2275 6 8 cbr 210 ------- 3 6.1 8.0 34 144
- 0.2275 6 8 cbr 210 ------- 3 6.1 8.0 34 144
r 0.22756 0 6 tcp 1040 ------- 1 0.0 6.0 28 105
+ 0.22756 6 0 ack 40 ------- 1 6.0 0.0 28 145
- 0.22756 6 0 ack 40 ------- 1 6.0 0.0 28 145
r 0.22776 6 0 ack 40 ------- 1 6.0 0.0 27 141
+ 0.22776 0 6 tcp 1040 ------- 1 0.0 6.0 47 146
- 0.228224 0 6 tcp 1040 ------- 1 0.0 6.0 31 112
r 0.228392 0 6 tcp 1040 ------- 1 0.0 6.0 29 109
+ 0.228392 6 0 ack 40 ------- 1 6.0 0.0 29 147
- 0.228392 6 0 ack 40 ------- 1 6.0 0.0 29 147
r 0.228592 6 0 ack 40 ------- 1 6.0 0.0 28 145
+ 0.228592 0 6 tcp 1040 ------- 1 0.0 6.0 48 148
r 0.228668 6 8 cbr 210 ------- 3 6.1 8.0 34 144
- 0.229056 0 6 tcp 1040 ------- 1 0.0 6.0 32 113
r 0.229224 0 6 tcp 1040 ------- 1 0.0 6.0 30 110
+ 0.229224 6 0 ack 40 ------- 1 6.0 0.0 30 149
- 0.229224 6 0 ack 40 ------- 1 6.0 0.0 30 149
r 0.229424 6 0 ack 40 ------- 1 6.0 0.0 29 147
+ 0.229424 0 6 tcp 1040 ------- 1 0.0 6.0 49 150
- 0.229888 0 6 tcp 1040 ------- 1 0.0 6.0 33 115
r 0.230056 0 6 tcp 1040 ------- 1 0.0 6.0 31 112
+ 0.230056 6 0 ack 40 ------- 1 6.0 0.0 31 151
- 0.230056 6 0 ack 40 ------- 1 6.0 0.0 31 151
r 0.230256 6 0 ack 40 ------- 1 6.0 0.0 30 149
+ 0.230256 0 6 tcp 1040 ------- 1 0.0 6.0 50 152
- 0.23072 0 6 tcp 1040 ------- 1 0.0 6.0 34 116
r 0.230888 0 6 tcp 1040 ------- 1 0.0 6.0 32 113
+ 0.230888 6 0 ack 40 ------- 1 6.0 0.0 32 153
- 0.230888 6 0 ack 40 ------- 1 6.0 0.0 32 153
r 0.231088 6 0 ack 40 ------- 1 6.0 0.0 31 151
+ 0.231088 0 6 tcp 1040 ------- 1 0.0 6.0 51 154
+ 0.23125 6 8 cbr 210 ------- 3 6.1 8.0 35 156
- 0.23125 6 8 cbr 210 ------- 3 6.1 8.0 35 156
- 0.231552 0 6 tcp 1040 ------- 1 0.0 6.0 35 118
r 0.23172 0 6 tcp 1040 ------- 1 0.0 6.0 33 115
+ 0.23172 6 0 ack 40 ------- 1 6.0 0.0 33 157
- 0.23172 6 0 ack 40 ------- 1 6.0 0.0 33 157
r 0.23192 6 0 ack 40 ------- 1 6.0 0.0 32 153
+ 0.23192 0 6 tcp 1040 ------- 1 0.0 6.0 52 158
- 0.232384 0 6 tcp 1040 ------- 1 0.0 6.0 36 119
r 0.232418 6 8 cbr 210 ------- 3 6.1 8.0 35 156
r 0.232552 0 6 tcp 1040 ------- 1 0.0 6.0 34 116
+ 0.232552 6 0 ack 40 ------- 1 6.0 0.0 34 159
- 0.232552 6 0 ack 40 ------- 1 6.0 0.0 34 159
r 0.232752 6 0 ack 40 ------- 1 6.0 0.0 33 157
+ 0.232752 0 6 tcp 1040 ------- 1 0.0 6.0 53 160
- 0.233216 0 6 tcp 1040 ------- 1 0.0 6.0 37 123
r 0.233384 0 6 tcp 1040 ------- 1 0.0 6.0 35 118
+ 0.233384 6 0 ack 40 ------- 1 6.0 0.0 35 161
- 0.233384 6 0 ack 40 ------- 1 6.0 0.0 35 161
r 0.233584 6 0 ack 40 ------- 1 6.0 0.0 34 159
+ 0.233584 0 6 tcp 1040 ------- 1 0.0 6.0 54 162
- 0.234048 0 6 tcp 1040 ------- 1 0.0 6.0 38 124
r 0.234216 0 6 tcp 1040 ------- 1 0.0 6.0 36 119
+ 0.234216 6 0 ack 40 ------- 1 6.0 0.0 36 163
- 0.234216 6 0 ack 40 ------- 1 6.0 0.0 36 163
r 0.234416 6 0 ack 40 ------- 1 6.0 0.0 35 161
+ 0.234416 0 6 tcp 1040 ------- 1 0.0 6.0 55 164
- 0.23488 0 6 tcp 1040 ------- 1 0.0 6.0 39 126
+ 0.235 6 8 cbr 210 ------- 3 6.1 8.0 36 166
- 0.235 6 8 cbr 210 ------- 3 6.1 8.0 36 166
r 0.235048 0 6 tcp 1040 ------- 1 0.0 6.0 37 123
+ 0.235048 6 0 ack 40 ------- 1 6.0 0.0 37 167
- 0.235048 6 0 ack 40 ------- 1 6.0 0.0 37 167
r 0.235248 6 0 ack 40 ------- 1 6.0 0.0 36 163
+ 0.235248 0 6 tcp 1040 ------- 1 0.0 6.0 56 168
- 0.235712 0 6 tcp 1040 ------- 1 0.0 6.0 40 128
r 0.23588 0 6 tcp 1040 ------- 1 0.0 6.0 38 124
+ 0.23588 6 0 ack 40 ------- 1 6.0 0.0 38 169
- 0.23588 6 0 ack 40 ------- 1 6.0 0.0 38 169
r 0.23608 6 0 ack 40 ------- 1 6.0 0.0 37 167
+ 0.23608 0 6 tcp 1040 ------- 1 0.0 6.0 57 170
r 0.236168 6 8 cbr 210 ------- 3 6.1 8.0 36 166
- 0.236544 0 6 tcp 1040 ------- 1 0.0 6.0 41 130
r 0.236712 0 6 tcp 1040 ------- 1 0.0 6.0 39 126
+ 0.236712 6 0 ack 40 ------- 1 6.0 0.0 39 171
- 0.236712 6 0 ack 40 ------- 1 6.0 0.0 39 171
r 0.236912 6 0 ack 40 ------- 1 6.0 0.0 38 169
+ 0.236912 0 6 tcp 1040 ------- 1 0.0 6.0 58 172
- 0.237376 0 6 tcp 1040 ------- 1 0.0 6.0 42 132
r 0.237544 0 6 tcp 1040 ------- 1 0.0 6.0 40 128
+ 0.237544 6 0 ack 40 ------- 1 6.0 0.0 40 173
- 0.237544 6 0 ack 40 ------- 1 6.0 0.0 40 173
r 0.237744 6 0 ack 40 ------- 1 6.0 0.0 39 171
+ 0.237744 0 6 tcp 1040 ------- 1 0.0 6.0 59 174
- 0.238208 0 6 tcp 1040 ------- 1 0.0 6.0 43 136
r 0.238376 0 6 tcp 1040 ------- 1 0.0 6.0 41 130
+ 0.238376 6 0 ack 40 ------- 1 6.0 0.0 41 175
- 0.238376 6 0 ack 40 ------- 1 6.0 0.0 41 175
r 0.238576 6 0 ack 40 ------- 1 6.0 0.0 40 173
+ 0.238576 0 6 tcp 1040 ------- 1 0.0 6.0 60 176
+ 0.23875 6 8 cbr 210 ------- 3 6.1 8.0 37 178
- 0.23875 6 8 cbr 210 ------- 3 6.1 8.0 37 178
- 0.23904 0 6 tcp 1040 ------- 1 0.0 6.0 44 138
r 0.239208 0 6 tcp 1040 ------- 1 0.0 6.0 42 132
+ 0.239208 6 0 ack 40 ------- 1 6.0 0.0 42 179
- 0.239208 6 0 ack 40 ------- 1 6.0 0.0 42 179
r 0.239408 6 0 ack 40 ------- 1 6.0 0.0 41 175
+ 0.239408 0 6 tcp 1040 ------- 1 0.0 6.0 61 180
- 0.239872 0 6 tcp 1040 ------- 1 0.0 6.0 45 140
r 0.239918 6 8 cbr 210 ------- 3 6.1 8.0 37 178
r 0.24004 0 6 tcp 1040 ------- 1 0.0 6.0 43 136
+ 0.24004 6 0 ack 40 ------- 1 6.0 0.0 43 181
- 0.24004 6 0 ack 40 ------- 1 6.0 0.0 43 181
r 0.24024 6 0 ack 40 ------- 1 6.0 0.0 42 179
+ 0.24024 0 6 tcp 1040 ------- 1 0.0 6.0 62 182
- 0.240704 0 6 tcp 1040 ------- 1 0.0 6.0 46 142
r 0.240872 0 6 tcp 1040 ------- 1 0.0 6.0 44 138
+ 0.240872 6 0 ack 40 ------- 1 6.0 0.0 44 183
- 0.240872 6 0 ack 40 ------- 1 6.0 0.0 44 183
r 0.241072 6 0 ack 40 ------- 1 6.0 0.0 43 181
+ 0.241072 0 6 tcp 1040 ------- 1 0.0 6.0 63 184
- 0.241536 0 6 tcp 1040 ------- 1 0.0 6.0 47 146
r 0.241704 0 6 tcp 1040 ------- 1 0.0 6.0 45 140
+ 0.241704 6 0 ack 40 ------- 1 6.0 0.0 45 185
- 0.241704 6 0 ack 40 ------- 1 6.0 0.0 45 185
r 0.241904 6 0 ack 40 ------- 1 6.0 0.0 44 183
+ 0.241904 0 6 tcp 1040 ------- 1 0.0 6.0 64 186
- 0.242368 0 6 tcp 1040 ------- 1 0.0 6.0 48 148
+ 0.2425 6 8 cbr 210 ------- 3 6.1 8.0 38 188
- 0.2425 6 8 cbr 210 ------- 3 6.1 8.0 38 188
r 0.242536 0 6 tcp 1040 ------- 1 0.0 6.0 46 142
+ 0.242536 6 0 ack 40 ------- 1 6.0 0.0 46 189
- 0.242536 6 0 ack 40 ------- 1 6.0 0.0 46 189
r 0.242736 6 0 ack 40 ------- 1 6.0 0.0 45 185
+ 0.242736 0 6 tcp 1040 ------- 1 0.0 6.0 65 190
- 0.2432 0 6 tcp 1040 ------- 1 0.0 6.0 49 150
r 0.243368 0 6 tcp 1040 ------- 1 0.0 6.0 47 146
+ 0.243368 6 0 ack 40 ------- 1 6.0 0.0 47 191
- 0.243368 6 0 ack 40 ------- 1 6.0 0.0 47 191
r 0.243568 6 0 ack 40 ------- 1 6.0 0.0 46 189
+ 0.243568 0 6 tcp 1040 ------- 1 0.0 6.0 66 192
r 0.243668 6 8 cbr 210 ------- 3 6.1 8.0 38 188
- 0.244032 0 6 tcp 1040 ------- 1 0.0 6.0 50 152
r 0.2442 0 6 tcp 1040 ------- 1 0.0 6.0 48 148
+ 0.2442 6 0 ack 40 ------- 1 6.0 0.0 48 193
- 0.2442 6 0 ack 40 ------- 1 6.0 0.0 48 193
r 0.2444 6 0 ack 40 ------- 1 6.0 0.0 47 191
+ 0.2444 0 6 tcp 1040 ------- 1 0.0 6.0 67 194
- 0.244864 0 6 tcp 1040 ------- 1 0.0 6.0 51 154
r 0.245032 0 6 tcp 1040 ------- 1 0.0 6.0 49 150
+ 0.245032 6 0 ack 40 ------- 1 6.0 0.0 49 195
- 0.245032 6 0 ack 40 ------- 1 6.0 0.0 49 195
r 0.245232 6 0 ack 40 ------- 1 6.0 0.0 48 193
+ 0.245232 0 6 tcp 1040 ------- 1 0.0 6.0 68 196
- 0.245696 0 6 tcp 1040 ------- 1 0.0 6.0 52 158
r 0.245864 0 6 tcp 1040 ------- 1 0.0 6.0 50 152
+ 0.245864 6 0 ack 40 ------- 1 6.0 0.0 50 197
- 0.245864 6 0 ack 40 ------- 1 6.0 0.0 50 197
r 0.246064 6 0 ack 40 ------- 1 6.0 0.0 49 195
+ 0.246064 0 6 tcp 1040 ------- 1 0.0 6.0 69 198
+ 0.24625 6 8 cbr 210 ------- 3 6.1 8.0 39 200
- 0.24625 6 8 cbr 210 ------- 3 6.1 8.0 39 200
- 0.246528 0 6 tcp 1040 ------- 1 0.0 6.0 53 160
r 0.246696 0 6 tcp 1040 ------- 1 0.0 6.0 51 154
+ 0.246696 6 0 ack 40 ------- 1 6.0 0.0 51 201
- 0.246696 6 0 ack 40 ------- 1 6.0 0.0 51 201
r 0.246896 6 0 ack 40 ------- 1 6.0 0.0 50 197
+ 0.246896 0 6 tcp 1040 ------- 1 0.0 6.0 70 202
- 0.24736 0 6 tcp 1040 ------- 1 0.0 6.0 54 162
r 0.247418 6 8 cbr 210 ------- 3 6.1 8.0 39 200
r 0.247528 0 6 tcp 1040 ------- 1 0.0 6.0 52 158
+ 0.247528 6 0 ack 40 ------- 1 6.0 0.0 52 203
- 0.247528 6 0 ack 40 ------- 1 6.0 0.0 52 203
r 0.247728 6 0 ack 40 ------- 1 6.0 0.0 51 201
+ 0.247728 0 6 tcp 1040 ------- 1 0.0 6.0 71 204
- 0.248192 0 6 tcp 1040 ------- 1 0.0 6.0 55 164
r 0.24836 0 6 tcp 1040 ------- 1 0.0 6.0 53 160
+ 0.24836 6 0 ack 40 ------- 1 6.0 0.0 53 205
- 0.24836 6 0 ack 40 ------- 1 6.0 0.0 53 205
r 0.24856 6 0 ack 40 ------- 1 6.0 0.0 52 203
+ 0.24856 0 6 tcp 1040 ------- 1 0.0 6.0 72 206
- 0.249024 0 6 tcp 1040 ------- 1 0.0 6.0 56 168
r 0.249192 0 6 tcp 1040 ------- 1 0.0 6.0 54 162
+ 0.249192 6 0 ack 40 ------- 1 6.0 0.0 54 207
- 0.249192 6 0 ack 40 ------- 1 6.0 0.0 54 207
r 0.249392 6 0 ack 40 ------- 1 6.0 0.0 53 205
+ 0.249392 0 6 tcp 1040 ------- 1 0.0 6.0 73 208
- 0.249856 0 6 tcp 1040 ------- 1 0.0 6.0 57 170
+ 0.25 6 8 cbr 210 ------- 3 6.1 8.0 40 210
- 0.25 6 8 cbr 210 ------- 3 6.1 8.0 40 210
r 0.250024 0 6 tcp 1040 ------- 1 0.0 6.0 55 164
+ 0.250024 6 0 ack 40 ------- 1 6.0 0.0 55 211
- 0.250024 6 0 ack 40 ------- 1 6.0 0.0 55 211
r 0.250224 6 0 ack 40 ------- 1 6.0 0.0 54 207
+ 0.250224 0 6 tcp 1040 ------- 1 0.0 6.0 74 212
- 0.250688 0 6 tcp 1040 ------- 1 0.0 6.0 58 172
r 0.250856 0 6 tcp 1040 ------- 1 0.0 6.0 56 168
+ 0.250856 6 0 ack 40 ------- 1 6.0 0.0 56 213
- 0.250856 6 0 ack 40 ------- 1 6.0 0.0 56 213
r 0.251056 6 0 ack 40 ------- 1 6.0 0.0 55 211
+ 0.251056 0 6 tcp 1040 ------- 1 0.0 6.0 75 214
r 0.251168 6 8 cbr 210 ------- 3 6.1 8.0 40 210
- 0.25152 0 6 tcp 1040 ------- 1 0.0 6.0 59 174
r 0.251688 0 6 tcp 1040 ------- 1 0.0 6.0 57 170
+ 0.251688 6 0 ack 40 ------- 1 6.0 0.0 57 215
- 0.251688 6 0 ack 40 ------- 1 6.0 0.0 57 215
r 0.251888 6 0 ack 40 ------- 1 6.0 0.0 56 213
+ 0.251888 0 6 tcp 1040 ------- 1 0.0 6.0 76 216
- 0.252352 0 6 tcp 1040 ------- 1 0.0 6.0 60 176
r 0.25252 0 6 tcp 1040 ------- 1 0.0 6.0 58 172
+ 0.25252 6 0 ack 40 ------- 1 6.0 0.0 58 217
- 0.25252 6 0 ack 40 ------- 1 6.0 0.0 58 217
r 0.25272 6 0 ack 40 ------- 1 6.0 0.0 57 215
+ 0.25272 0 6 tcp 1040 ------- 1 0.0 6.0 77 218
- 0.253184 0 6 tcp 1040 ------- 1 0.0 6.0 61 180
r 0.253352 0 6 tcp 1040 ------- 1 0.0 6.0 59 174
+ 0.253352 6 0 ack 40 ------- 1 6.0 0.0 59 219
- 0.253352 6 0 ack 40 ------- 1 6.0 0.0 59 219
r 0.253552 6 0 ack 40 ------- 1 6.0 0.0 58 217
+ 0.253552 0 6 tcp 1040 ------- 1 0.0 6.0 78 220
+ 0.25375 6 8 cbr 210 ------- 3 6.1 8.0 41 222
- 0.25375 6 8 cbr 210 ------- 3 6.1 8.0 41 222
- 0.254016 0 6 tcp 1040 ------- 1 0.0 6.0 62 182
r 0.254184 0 6 tcp 1040 ------- 1 0.0 6.0 60 176
+ 0.254184 6 0 ack 40 ------- 1 6.0 0.0 60 223
- 0.254184 6 0 ack 40 ------- 1 6.0 0.0 60 223
r 0.254384 6 0 ack 40 ------- 1 6.0 0.0 59 219
+ 0.254384 0 6 tcp 1040 ------- 1 0.0 6.0 79 224
- 0.254848 0 6 tcp 1040 ------- 1 0.0 6.0 63 184
r 0.254918 6 8 cbr 210 ------- 3 6.1 8.0 41 222
r 0.255016 0 6 tcp 1040 ------- 1 0.0 6.0 61 180
+ 0.255016 6 0 ack 40 ------- 1 6.0 0.0 61 225
- 0.255016 6 0 ack 40 ------- 1 6.0 0.0 61 225
r 0.255216 6 0 ack 40 ------- 1 6.0 0.0 60 223
+ 0.255216 0 6 tcp 1040 ------- 1 0.0 6.0 80 226
- 0.25568 0 6 tcp 1040 ------- 1 0.0 6.0 64 186
r 0.255848 0 6 tcp 1040 ------- 1 0.0 6.0 62 182
+ 0.255848 6 0 ack 40 ------- 1 6.0 0.0 62 227
- 0.255848 6 0 ack 40 ------- 1 6.0 0.0 62 227
r 0.256048 6 0 ack 40 ------- 1 6.0 0.0 61 225
+ 0.256048 0 6 tcp 1040 ------- 1 0.0 6.0 81 228
- 0.256512 0 6 tcp 1040 ------- 1 0.0 6.0 65 190
r 0.25668 0 6 tcp 1040 ------- 1 0.0 6.0 63 184
+ 0.25668 6 0 ack 40 ------- 1 6.0 0.0 63 229
- 0.25668 6 0 ack 40 ------- 1 6.0 0.0 63 229
r 0.25688 6 0 ack 40 ------- 1 6.0 0.0 62 227
+ 0.25688 0 6 tcp 1040 ------- 1 0.0 6.0 82 230
- 0.257344 0 6 tcp 1040 ------- 1 0.0 6.0 66 192
+ 0.2575 6 8 cbr 210 ------- 3 6.1 8.0 42 232
- 0.2575 6 8 cbr 210 ------- 3 6.1 8.0 42 232
r 0.257512 0 6 tcp 1040 ------- 1 0.0 6.0 64 186
+ 0.257512 6 0 ack 40 ------- 1 6.0 0.0 64 233
- 0.257512 6 0 ack 40 ------- 1 6.0 0.0 64 233
r 0.257712 6 0 ack 40 ------- 1 6.0 0.0 63 229
+ 0.257712 0 6 tcp 1040 ------- 1 0.0 6.0 83 234
- 0.258176 0 6 tcp 1040 ------- 1 0.0 6.0 67 194
r 0.258344 0 6 tcp 1040 ------- 1 0.0 6.0 65 190
+ 0.258344 6 0 ack 40 ------- 1 6.0 0.0 65 235
- 0.258344 6 0 ack 40 ------- 1 6.0 0.0 65 235
r 0.258544 6 0 ack 40 ------- 1 6.0 0.0 64 233
+ 0.258544 0 6 tcp 1040 ------- 1 0.0 6.0 84 236
r 0.258668 6 8 cbr 210 ------- 3 6.1 8.0 42 232
- 0.259008 0 6 tcp 1040 ------- 1 0.0 6.0 68 196
r 0.259176 0 6 tcp 1040 ------- 1 0.0 6.0 66 192
+ 0.259176 6 0 ack 40 ------- 1 6.0 0.0 66 237
- 0.259176 6 0 ack 40 ------- 1 6.0 0.0 66 237
r 0.259376 6 0 ack 40 ------- 1 6.0 0.0 65 235
+ 0.259376 0 6 tcp 1040 ------- 1 0.0 6.0 85 238
- 0.25984 0 6 tcp 1040 ------- 1 0.0 6.0 69 198
r 0.260008 0 6 tcp 1040 ------- 1 0.0 6.0 67 194
+ 0.260008 6 0 ack 40 ------- 1 6.0 0.0 67 239
- 0.260008 6 0 ack 40 ------- 1 6.0 0.0 67 239
r 0.260208 6 0 ack 40 ------- 1 6.0 0.0 66 237
+ 0.260208 0 6 tcp 1040 ------- 1 0.0 6.0 86 240
- 0.260672 0 6 tcp 1040 ------- 1 0.0 6.0 70 202
r 0.26084 0 6 tcp 1040 ------- 1 0.0 6.0 68 196
+ 0.26084 6 0 ack 40 ------- 1 6.0 0.0 68 241
- 0.26084 6 0 ack 40 ------- 1 6.0 0.0 68 241
r 0.26104 6 0 ack 40 ------- 1 6.0 0.0 67 239
+ 0.26104 0 6 tcp 1040 ------- 1 0.0 6.0 87 242
+ 0.26125 6 8 cbr 210 ------- 3 6.1 8.0 43 244
- 0.26125 6 8 cbr 210 ------- 3 6.1 8.0 43 244
- 0.261504 0 6 tcp 1040 ------- 1 0.0 6.0 71 204
r 0.261672 0 6 tcp 1040 ------- 1 0.0 6.0 69 198
+ 0.261672 6 0 ack 40 ------- 1 6.0 0.0 69 245
- 0.261672 6 0 ack 40 ------- 1 6.0 0.0 69 245
r 0.261872 6 0 ack 40 ------- 1 6.0 0.0 68 241
+ 0.261872 0 6 tcp 1040 ------- 1 0.0 6.0 88 246
- 0.262336 0 6 tcp 1040 ------- 1 0.0 6.0 72 206
r 0.262418 6 8 cbr 210 ------- 3 6.1 8.0 43 244
r 0.262504 0 6 tcp 1040 ------- 1 0.0 6.0 70 202
+ 0.262504 6 0 ack 40 ------- 1 6.0 0.0 70 247
- 0.262504 6 0 ack 40 ------- 1 6.0 0.0 70 247
r 0.262704 6 0 ack 40 ------- 1 6.0 0.0 69 245
+ 0.262704 0 6 tcp 1040 ------- 1 0.0 6.0 89 248
- 0.263168 0 6 tcp 1040 ------- 1 0.0 6.0 73 208
r 0.263336 0 6 tcp 1040 ------- 1 0.0 6.0 71 204
+ 0.263336 6 0 ack 40 ------- 1 6.0 0.0 71 249
- 0.263336 6 0 ack 40 ------- 1 6.0 0.0 71 249
r 0.263536 6 0 ack 40 ------- 1 6.0 0.0 70 247
+ 0.263536 0 6 tcp 1040 ------- 1 0.0 6.0 90 250
- 0.264 0 6 tcp 1040 ------- 1 0.0 6.0 74 212
r 0.264168 0 6 tcp 1040 ------- 1 0.0 6.0 72 206
+ 0.264168 6 0 ack 40 ------- 1 6.0 0.0 72 251
- 0.264168 6 0 ack 40 ------- 1 6.0 0.0 72 251
r 0.264368 6 0 ack 40 ------- 1 6.0 0.0 71 249
+ 0.264368 0 6 tcp 1040 ------- 1 0.0 6.0 91 252
- 0.264832 0 6 tcp 1040 ------- 1 0.0 6.0 75 214
+ 0.265 6 8 cbr 210 ------- 3 6.1 8.0 44 254
- 0.265 6 8 cbr 210 ------- 3 6.1 8.0 44 254
r 0.265 0 6 tcp 1040 ------- 1 0.0 6.0 73 208
+ 0.265 6 0 ack 40 ------- 1 6.0 0.0 73 255
- 0.265 6 0 ack 40 ------- 1 6.0 0.0 73 255
r 0.2652 6 0 ack 40 ------- 1 6.0 0.0 72 251
+ 0.2652 0 6 tcp 1040 ------- 1 0.0 6.0 92 256
- 0.265664 0 6 tcp 1040 ------- 1 0.0 6.0 76 216
r 0.265832 0 6 tcp 1040 ------- 1 0.0 6.0 74 212
+ 0.265832 6 0 ack 40 ------- 1 6.0 0.0 74 257
- 0.265832 6 0 ack 40 ------- 1 6.0 0.0 74 257
r 0.266032 6 0 ack 40 ------- 1 6.0 0.0 73 255
+ 0.266032 0 6 tcp 1040 ------- 1 0.0 6.0 93 258
r 0.266168 6 8 cbr 210 ------- 3 6.1 8.0 44 254
- 0.266496 0 6 tcp 1040 ------- 1 0.0 6.0 77 218
r 0.266664 0 6 tcp 1040 ------- 1 0.0 6.0 75 214
+ 0.266664 6 0 ack 40 ------- 1 6.0 0.0 75 259
- 0.266664 6 0 ack 40 ------- 1 6.0 0.0 75 259
r 0.266864 6 0 ack 40 ------- 1 6.0 0.0 74 257
+ 0.266864 0 6 tcp 1040 ------- 1 0.0 6.0 94 260
- 0.267328 0 6 tcp 1040 ------- 1 0.0 6.0 78 220
r 0.267496 0 6 tcp 1040 ------- 1 0.0 6.0 76 216
+ 0.267496 6 0 ack 40 ------- 1 6.0 0.0 76 261
- 0.267496 6 0 ack 40 ------- 1 6.0 0.0 76 261
r 0.267696 6 0 ack 40 ------- 1 6.0 0.0 75 259
+ 0.267696 0 6 tcp 1040 ------- 1 0.0 6.0 95 262
- 0.26816 0 6 tcp 1040 ------- 1 0.0 6.0 79 224
r 0.268328 0 6 tcp 1040 ------- 1 0.0 6.0 77 218
+ 0.268328 6 0 ack 40 ------- 1 6.0 0.0 77 263
- 0.268328 6 0 ack 40 ------- 1 6.0 0.0 77 263
r 0.268528 6 0 ack 40 ------- 1 6.0 0.0 76 261
+ 0.268528 0 6 tcp 1040 ------- 1 0.0 6.0 96 264
+ 0.26875 6 8 cbr 210 ------- 3 6.1 8.0 45 266
- 0.26875 6 8 cbr 210 ------- 3 6.1 8.0 45 266
- 0.268992 0 6 tcp 1040 ------- 1 0.0 6.0 80 226
r 0.26916 0 6 tcp 1040 ------- 1 0.0 6.0 78 220
+ 0.26916 6 0 ack 40 ------- 1 6.0 0.0 78 267
- 0.26916 6 0 ack 40 ------- 1 6.0 0.0 78 267
r 0.26936 6 0 ack 40 ------- 1 6.0 0.0 77 263
+ 0.26936 0 6 tcp 1040 ------- 1 0.0 6.0 97 268
- 0.269824 0 6 tcp 1040 ------- 1 0.0 6.0 81 228
r 0.269918 6 8 cbr 210 ------- 3 6.1 8.0 45 266
r 0.269992 0 6 tcp 1040 ------- 1 0.0 6.0 79 224
+ 0.269992 6 0 ack 40 ------- 1 6.0 0.0 79 269
- 0.269992 6 0 ack 40 ------- 1 6.0 0.0 79 269
r 0.270192 6 0 ack 40 ------- 1 6.0 0.0 78 267