n -t 0 -s 0 -S DLABEL -l "source" -L ""
n -t 0 -s 1 -S DLABEL -l "link1" -L ""
V -t * -v 1.0a5 -a 0
A -t * -n 1 -p 0 -o 0x7fffffff -c 30 -a 1
A -t * -h 1 -m 1073741823 -s 0
c -t * -i 1 -n Blue
c -t * -i 2 -n Red
n -t * -a 4 -s 4 -S UP -v circle -c black -i black
n -t * -a 0 -s 0 -S UP -v circle -c black -i black
n -t * -a 1 -s 1 -S UP -v circle -c black -i black
n -t * -a 2 -s 2 -S UP -v circle -c black -i black
n -t * -a 3 -s 3 -S UP -v circle -c black -i black
l -t * -s 0 -d 1 -S UP -r 10000000 -D 0.001 -c black
l -t * -s 0 -d 2 -S UP -r 10000000 -D 0.001 -c black
l -t * -s 0 -d 3 -S UP -r 10000000 -D 0.001 -c black
l -t * -s 0 -d 4 -S UP -r 10000000 -D 0.001 -c black
l -t * -s 1 -d 2 -S UP -r 10000000 -D 0.001 -c black
l -t * -s 1 -d 3 -S UP -r 10000000 -D 0.001 -c black
l -t * -s 1 -d 4 -S UP -r 10000000 -D 0.001 -c black
l -t * -s 2 -d 3 -S UP -r 10000000 -D 0.001 -c black
l -t * -s 2 -d 4 -S UP -r 10000000 -D 0.001 -c black
l -t * -s 3 -d 4 -S UP -r 10000000 -D 0.001 -c black
+ -t 0.1 -s 3 -d 2 -p cbr -e 210 -c 2 -i 0 -a 2 -x {3.0 2.0 0 ------- null}
- -t 0.1 -s 3 -d 2 -p cbr -e 210 -c 2 -i 0 -a 2 -x {3.0 2.0 0 ------- null}
h -t 0.1 -s 3 -d 2 -p cbr -e 210 -c 2 -i 0 -a 2 -x {3.0 2.0 -1 ------- null}
+ -t 0.1 -s 1 -d 0 -p tcp -e 40 -c 3 -i 1 -a 3 -x {1.0 0.1 0 ------- null}
- -t 0.1 -s 1 -d 0 -p tcp -e 40 -c 3 -i 1 -a 3 -x {1.0 0.1 0 ------- null}
h -t 0.1 -s 1 -d 0 -p tcp -e 40 -c 3 -i 1 -a 3 -x {1.0 0.1 -1 ------- null}
+ -t 0.1 -s 0 -d 4 -p tcp -e 40 -c 1 -i 2 -a 1 -x {0.0 4.0 0 ------- null}
d -t 0.1 -s 0 -d 4 -p tcp -e 40 -c 1 -i 2 -a 1 -x {0.0 4.0 0 ------- null}
r -t 0.101032 -s 1 -d 0 -p tcp -e 40 -c 3 -i 1 -a 3 -x {1.0 0.1 0 ------- null}
+ -t 0.101032 -s 0 -d 1 -p ack -e 40 -c 3 -i 3 -a 3 -x {0.1 1.0 0 ------- null}
d -t 0.101032 -s 0 -d 1 -p ack -e 40 -c 3 -i 3 -a 3 -x {0.1 1.0 0 ------- null}
r -t 0.101168 -s 3 -d 2 -p cbr -e 210 -c 2 -i 0 -a 2 -x {3.0 2.0 0 ------- null}
+ -t 0.10375 -s 3 -d 2 -p cbr -e 210 -c 2 -i 4 -a 2 -x {3.0 2.0 1 ------- null}
- -t 0.10375 -s 3 -d 2 -p cbr -e 210 -c 2 -i 4 -a 2 -x {3.0 2.0 1 ------- null}
h -t 0.10375 -s 3 -d 2 -p cbr -e 210 -c 2 -i 4 -a 2 -x {3.0 2.0 -1 ------- null}
r -t 0.104918 -s 3 -d 2 -p cbr -e 210 -c 2 -i 4 -a 2 -x {3.0 2.0 1 ------- null}
+ -t 0.1075 -s 3 -d 2 -p cbr -e 210 -c 2 -i 5 -a 2 -x {3.0 2.0 2 ------- null}
- -t 0.1075 -s 3 -d 2 -p cbr -e 210 -c 2 -i 5 -a 2 -x {3.0 2.0 2 ------- null}
h -t 0.1075 -s 3 -d 2 -p cbr -e 210 -c 2 -i 5 -a 2 -x {3.0 2.0 -1 ------- null}
r -t 0.108668 -s 3 -d 2 -p cbr -e 210 -c 2 -i 5 -a 2 -x {3.0 2.0 2 ------- null}
+ -t 0.11125 -s 3 -d 2 -p cbr -e 210 -c 2 -i 6 -a 2 -x {3.0 2.0 3 ------- null}
- -t 0.11125 -s 3 -d 2 -p cbr -e 210 -c 2 -i 6 -a 2 -x {3.0 2.0 3 ------- null}
h -t 0.11125 -s 3 -d 2 -p cbr -e 210 -c 2 -i 6 -a 2 -x {3.0 2.0 -1 ------- null}
r -t 0.112418 -s 3 -d 2 -p cbr -e 210 -c 2 -i 6 -a 2 -x {3.0 2.0 3 ------- null}
+ -t 0.115 -s 3 -d 2 -p cbr -e 210 -c 2 -i 7 -a 2 -x {3.0 2.0 4 ------- null}
- -t 0.115 -s 3 -d 2 -p cbr -e 210 -c 2 -i 7 -a 2 -x {3.0 2.0 4 ------- null}
h -t 0.115 -s 3 -d 2 -p cbr -e 210 -c 2 -i 7 -a 2 -x {3.0 2.0 -1 ------- null}
r -t 0.116168 -s 3 -d 2 -p cbr -e 210 -c 2 -i 7 -a 2 -x {3.0 2.0 4 ------- null}
+ -t 0.11875 -s 3 -d 2 -p cbr -e 210 -c 2 -i 8 -a 2 -x {3.0 2.0 5 ------- null}
- -t 0.11875 -s 3 -d 2 -p cbr -e 210 -c 2 -i 8 -a 2 -x {3.0 2.0 5 ------- null}
h -t 0.11875 -s 3 -d 2 -p cbr -e 210 -c 2 -i 8 -a 2 -x {3.0 2.0 -1 ------- null}
r -t 0.119918 -s 3 -d 2 -p cbr -e 210 -c 2 -i 8 -a 2 -x {3.0 2.0 5 ------- null}
+ -t 0.1225 -s 3 -d 2 -p cbr -e 210 -c 2 -i 9 -a 2 -x {3.0 2.0 6 ------- null}
- -t 0.1225 -s 3 -d 2 -p cbr -e 210 -c 2 -i 9 -a 2 -x {3.0 2.0 6 ------- null}
h -t 0.1225 -s 3 -d 2 -p cbr -e 210 -c 2 -i 9 -a 2 -x {3.0 2.0 -1 ------- null}
r -t 0.123668 -s 3 -d 2 -p cbr -e 210 -c 2 -i 9 -a 2 -x {3.0 2.0 6 ------- null}
+ -t 0.12625 -s 3 -d 2 -p cbr -e 210 -c 2 -i 10 -a 2 -x {3.0 2.0 7 ------- null}
- -t 0.12625 -s 3 -d 2 -p cbr -e 210 -c 2 -i 10 -a 2 -x {3.0 2.0 7 ------- null}
h -t 0.12625 -s 3 -d 2 -p cbr -e 210 -c 2 -i 10 -a 2 -x {3.0 2.0 -1 ------- null}
r -t 0.127418 -s 3 -d 2 -p cbr -e 210 -c 2 -i 10 -a 2 -x {3.0 2.0 7 ------- null}
+ -t 0.13 -s 3 -d 2 -p cbr -e 210 -c 2 -i 11 -a 2 -x {3.0 2.0 8 ------- null}
- -t 0.13 -s 3 -d 2 -p cbr -e 210 -c 2 -i 11 -a 2 -x {3.0 2.0 8 ------- null}
h -t 0.13 -s 3 -d 2 -p cbr -e 210 -c 2 -i 11 -a 2 -x {3.0 2.0 -1 ------- null}
r -t 0.131168 -s 3 -d 2 -p cbr -e 210 -c 2 -i 11 -a 2 -x {3.0 2.0 8 ------- null}
+ -t 0.13375 -s 3 -d 2 -p cbr -e 210 -c 2 -i 12 -a 2 -x {3.0 2.0 9 ------- null}
- -t 0.13375 -s 3 -d 2 -p cbr -e 210 -c 2 -i 12 -a 2 -x {3.0 2.0 9 ------- null}
h -t 0.13375 -s 3 -d 2 -p cbr -e 210 -c 2 -i 12 -a 2 -x {3.0 2.0 -1 ------- null}
r -t 0.134918 -s 3 -d 2 -p cbr -e 210 -c 2 -i 12 -a 2 -x {3.0 2.0 9 ------- null}
+ -t 0.1375 -s 3 -d 2 -p cbr -e 210 -c 2 -i 13 -a 2 -x {3.0 2.0 10 ------- null}
- -t 0.1375 -s 3 -d 2 -p cbr -e 210 -c 2 -i 13 -a 2 -x {3.0 2.0 10 ------- null}
h -t 0.1375 -s 3 -d 2 -p cbr -e 210 -c 2 -i 13 -a 2 -x {3.0 2.0 -1 ------- null}
r -t 0.138668 -s 3 -d 2 -p cbr -e 210 -c 2 -i 13 -a 2 -x {3.0 2.0 10 ------- null}
+ -t 0.14125 -s 3 -d 2 -p cbr -e 210 -c 2 -i 14 -a 2 -x {3.0 2.0 11 ------- null}
- -t 0.14125 -s 3 -d 2 -p cbr -e 210 -c 2 -i 14 -a 2 -x {3.0 2.0 11 ------- null}
h -t 0.14125 -s 3 -d 2 -p cbr -e 210 -c 2 -i 14 -a 2 -x {3.0 2.0 -1 ------- null}
r -t 0.142418 -s 3 -d 2 -p cbr -e 210 -c 2 -i 14 -a 2 -x {3.0 2.0 11 ------- null}
+ -t 0.145 -s 3 -d 2 -p cbr -e 210 -c 2 -i 15 -a 2 -x {3.0 2.0 12 ------- null}
- -t 0.145 -s 3 -d 2 -p cbr -e 210 -c 2 -i 15 -a 2 -x {3.0 2.0 12 ------- null}
h -t 0.145 -s 3 -d 2 -p cbr -e 210 -c 2 -i 15 -a 2 -x {3.0 2.0 -1 ------- null}
r -t 0.146168 -s 3 -d 2 -p cbr -e 210 -c 2 -i 15 -a 2 -x {3.0 2.0 12 ------- null}
+ -t 0.14875 -s 3 -d 2 -p cbr -e 210 -c 2 -i 16 -a 2 -x {3.0 2.0 13 ------- null}
- -t 0.14875 -s 3 -d 2 -p cbr -e 210 -c 2 -i 16 -a 2 -x {3.0 2.0 13 ------- null}
h -t 0.14875 -s 3 -d 2 -p cbr -e 210 -c 2 -i 16 -a 2 -x {3.0 2.0 -1 ------- null}
r -t 0.149918 -s 3 -d 2 -p cbr -e 210 -c 2 -i 16 -a 2 -x {3.0 2.0 13 ------- null}
+ -t 0.1525 -s 3 -d 2 -p cbr -e 210 -c 2 -i 17 -a 2 -x {3.0 2.0 14 ------- null}
- -t 0.1525 -s 3 -d 2 -p cbr -e 210 -c 2 -i 17 -a 2 -x {3.0 2.0 14 ------- null}
h -t 0.1525 -s 3 -d 2 -p cbr -e 210 -c 2 -i 17 -a 2 -x {3.0 2.0 -1 ------- null}
r -t 0.153668 -s 3 -d 2 -p cbr -e 210 -c 2 -i 17 -a 2 -x {3.0 2.0 14 ------- null}
+ -t 0.15625 -s 3 -d 2 -p cbr -e 210 -c 2 -i 18 -a 2 -x {3.0 2.0 15 ------- null}
- -t 0.15625 -s 3 -d 2 -p cbr -e 210 -c 2 -i 18 -a 2 -x {3.0 2.0 15 ------- null}
h -t 0.15625 -s 3 -d 2 -p cbr -e 210 -c 2 -i 18 -a 2 -x {3.0 2.0 -1 ------- null}
r -t 0.157418 -s 3 -d 2 -p cbr -e 210 -c 2 -i 18 -a 2 -x {3.0 2.0 15 ------- null}
+ -t 0.16 -s 3 -d 2 -p cbr -e 210 -c 2 -i 19 -a 2 -x {3.0 2.0 16 ------- null}
- -t 0.16 -s 3 -d 2 -p cbr -e 210 -c 2 -i 19 -a 2 -x {3.0 2.0 16 ------- null}
h -t 0.16 -s 3 -d 2 -p cbr -e 210 -c 2 -i 19 -a 2 -x {3.0 2.0 -1 ------- null}
r -t 0.161168 -s 3 -d 2 -p cbr -e 210 -c 2 -i 19 -a 2 -x {3.0 2.0 16 ------- null}
+ -t 0.16375 -s 3 -d 2 -p cbr -e 210 -c 2 -i 20 -a 2 -x {3.0 2.0 17 ------- null}
- -t 0.16375 -s 3 -d 2 -p cbr -e 210 -c 2 -i 20 -a 2 -x {3.0 2.0 17 ------- null}
h -t 0.16375 -s 3 -d 2 -p cbr -e 210 -c 2 -i 20 -a 2 -x {3.0 2.0 -1 ------- null}
r -t 0.164918 -s 3 -d 2 -p cbr -e 210 -c 2 -i 20 -a 2 -x {3.0 2.0 17 ------- null}
+ -t 0.1675 -s 3 -d 2 -p cbr -e 210 -c 2 -i 21 -a 2 -x {3.0 2.0 18 ------- null}
- -t 0.1675 -s 3 -d 2 -p cbr -e 210 -c 2 -i 21 -a 2 -x {3.0 2.0 18 ------- null}
h -t 0.1675 -s 3 -d 2 -p cbr -e 210 -c 2 -i 21 -a 2 -x {3.0 2.0 -1 ------- null}
r -t 0.168668 -s 3 -d 2 -p cbr -e 210 -c 2 -i 21 -a 2 -x {3.0 2.0 18 ------- null}
+ -t 0.17125 -s 3 -d 2 -p cbr -e 210 -c 2 -i 22 -a 2 -x {3.0 2.0 19 ------- null}
- -t 0.17125 -s 3 -d 2 -p cbr -e 210 -c 2 -i 22 -a 2 -x {3.0 2.0 19 ------- null}
h -t 0.17125 -s 3 -d 2 -p cbr -e 210 -c 2 -i 22 -a 2 -x {3.0 2.0 -1 ------- null}
r -t 0.172418 -s 3 -d 2 -p cbr -e 210 -c 2 -i 22 -a 2 -x {3.0 2.0 19 ------- null}
+ -t 0.175 -s 3 -d 2 -p cbr -e 210 -c 2 -i 23 -a 2 -x {3.0 2.0 20 ------- null}
- -t 0.175 -s 3 -d 2 -p cbr -e 210 -c 2 -i 23 -a 2 -x {3.0 2.0 20 ------- null}
h -t 0.175 -s 3 -d 2 -p cbr -e 210 -c 2 -i 23 -a 2 -x {3.0 2.0 -1 ------- null}
r -t 0.176168 -s 3 -d 2 -p cbr -e 210 -c 2 -i 23 -a 2 -x {3.0 2.0 20 ------- null}
+ -t 0.17875 -s 3 -d 2 -p cbr -e 210 -c 2 -i 24 -a 2 -x {3.0 2.0 21 ------- null}
- -t 0.17875 -s 3 -d 2 -p cbr -e 210 -c 2 -i 24 -a 2 -x {3.0 2.0 21 ------- null}
h -t 0.17875 -s 3 -d 2 -p cbr -e 210 -c 2 -i 24 -a 2 -x {3.0 2.0 -1 ------- null}
r -t 0.179918 -s 3 -d 2 -p cbr -e 210 -c 2 -i 24 -a 2 -x {3.0 2.0 21 ------- null}
+ -t 0.1825 -s 3 -d 2 -p cbr -e 210 -c 2 -i 25 -a 2 -x {3.0 2.0 22 ------- null}
- -t 0.1825 -s 3 -d 2 -p cbr -e 210 -c 2 -i 25 -a 2 -x {3.0 2.0 22 ------- null}
h -t 0.1825 -s 3 -d 2 -p cbr -e 210 -c 2 -i 25 -a 2 -x {3.0 2.0 -1 ------- null}
r -t 0.183668 -s 3 -d 2 -p cbr -e 210 -c 2 -i 25 -a 2 -x {3.0 2.0 22 ------- null}
+ -t 0.18625 -s 3 -d 2 -p cbr -e 210 -c 2 -i 26 -a 2 -x {3.0 2.0 23 ------- null}
- -t 0.18625 -s 3 -d 2 -p cbr -e 210 -c 2 -i 26 -a 2 -x {3.0 2.0 23 ------- null}
h -t 0.18625 -s 3 -d 2 -p cbr -e 210 -c 2 -i 26 -a 2 -x {3.0 2.0 -1 ------- null}
r -t 0.187418 -s 3 -d 2 -p cbr -e 210 -c 2 -i 26 -a 2 -x {3.0 2.0 23 ------- null}
+ -t 0.19 -s 3 -d 2 -p cbr -e 210 -c 2 -i 27 -a 2 -x {3.0 2.0 24 ------- null}
- -t 0.19 -s 3 -d 2 -p cbr -e 210 -c 2 -i 27 -a 2 -x {3.0 2.0 24 ------- null}
h -t 0.19 -s 3 -d 2 -p cbr -e 210 -c 2 -i 27 -a 2 -x {3.0 2.0 -1 ------- null}
r -t 0.191168 -s 3 -d 2 -p cbr -e 210 -c 2 -i 27 -a 2 -x {3.0 2.0 24 ------- null}
+ -t 0.19375 -s 3 -d 2 -p cbr -e 210 -c 2 -i 28 -a 2 -x {3.0 2.0 25 ------- null}
- -t 0.19375 -s 3 -d 2 -p cbr -e 210 -c 2 -i 28 -a 2 -x {3.0 2.0 25 ------- null}
h -t 0.19375 -s 3 -d 2 -p cbr -e 210 -c 2 -i 28 -a 2 -x {3.0 2.0 -1 ------- null}
r -t 0.194918 -s 3 -d 2 -p cbr -e 210 -c 2 -i 28 -a 2 -x {3.0 2.0 25 ------- null}
+ -t 0.1975 -s 3 -d 2 -p cbr -e 210 -c 2 -i 29 -a 2 -x {3.0 2.0 26 ------- null}
- -t 0.1975 -s 3 -d 2 -p cbr -e 210 -c 2 -i 29 -a 2 -x {3.0 2.0 26 ------- null}
h -t 0.1975 -s 3 -d 2 -p cbr -e 210 -c 2 -i 29 -a 2 -x {3.0 2.0 -1 ------- null}
r -t 0.198668 -s 3 -d 2 -p cbr -e 210 -c 2 -i 29 -a 2 -x {3.0 2.0 26 ------- null}
+ -t 0.20125 -s 3 -d 2 -p cbr -e 210 -c 2 -i 30 -a 2 -x {3.0 2.0 27 ------- null}
- -t 0.20125 -s 3 -d 2 -p cbr -e 210 -c 2 -i 30 -a 2 -x {3.0 2.0 27 ------- null}
h -t 0.20125 -s 3 -d 2 -p cbr -e 210 -c 2 -i 30 -a 2 -x {3.0 2.0 -1 ------- null}
r -t 0.202418 -s 3 -d 2 -p cbr -e 210 -c 2 -i 30 -a 2 -x {3.0 2.0 27 ------- null}
+ -t 0.205 -s 3 -d 2 -p cbr -e 210 -c 2 -i 31 -a 2 -x {3.0 2.0 28 ------- null}
- -t 0.205 -s 3 -d 2 -p cbr -e 210 -c 2 -i 31 -a 2 -x {3.0 2.0 28 ------- null}
h -t 0.205 -s 3 -d 2 -p cbr -e 210 -c 2 -i 31 -a 2 -x {3.0 2.0 -1 ------- null}
r -t 0.206168 -s 3 -d 2 -p cbr -e 210 -c 2 -i 31 -a 2 -x {3.0 2.0 28 ------- null}
+ -t 0.20875 -s 3 -d 2 -p cbr -e 210 -c 2 -i 32 -a 2 -x {3.0 2.0 29 ------- null}
- -t 0.20875 -s 3 -d 2 -p cbr -e 210 -c 2 -i 32 -a 2 -x {3.0 2.0 29 ------- null}
h -t 0.20875 -s 3 -d 2 -p cbr -e 210 -c 2 -i 32 -a 2 -x {3.0 2.0 -1 ------- null}
r -t 0.209918 -s 3 -d 2 -p cbr -e 210 -c 2 -i 32 -a 2 -x {3.0 2.0 29 ------- null}
+ -t 0.2125 -s 3 -d 2 -p cbr -e 210 -c 2 -i 33 -a 2 -x {3.0 2.0 30 ------- null}
- -t 0.2125 -s 3 -d 2 -p cbr -e 210 -c 2 -i 33 -a 2 -x {3.0 2.0 30 ------- null}
h -t 0.2125 -s 3 -d 2 -p cbr -e 210 -c 2 -i 33 -a 2 -x {3.0 2.0 -1 ------- null}
r -t 0.213668 -s 3 -d 2 -p cbr -e 210 -c 2 -i 33 -a 2 -x {3.0 2.0 30 ------- null}
+ -t 0.21625 -s 3 -d 2 -p cbr -e 210 -c 2 -i 34 -a 2 -x {3.0 2.0 31 ------- null}
- -t 0.21625 -s 3 -d 2 -p cbr -e 210 -c 2 -i 34 -a 2 -x {3.0 2.0 31 ------- null}
h -t 0.21625 -s 3 -d 2 -p cbr -e 210 -c 2 -i 34 -a 2 -x {3.0 2.0 -1 ------- null}
r -t 0.217418 -s 3 -d 2 -p cbr -e 210 -c 2 -i 34 -a 2 -x {3.0 2.0 31 ------- null}
+ -t 0.22 -s 3 -d 2 -p cbr -e 210 -c 2 -i 35 -a 2 -x {3.0 2.0 32 ------- null}
- -t 0.22 -s 3 -d 2 -p cbr -e 210 -c 2 -i 35 -a 2 -x {3.0 2.0 32 ------- null}
h -t 0.22 -s 3 -d 2 -p cbr -e 210 -c 2 -i 35 -a 2 -x {3.0 2.0 -1 ------- null}
r -t 0.221168 -s 3 -d 2 -p cbr -e 210 -c 2 -i 35 -a 2 -x {3.0 2.0 32 ------- null}
+ -t 0.22375 -s 3 -d 2 -p cbr -e 210 -c 2 -i 36 -a 2 -x {3.0 2.0 33 ------- null}
- -t 0.22375 -s 3 -d 2 -p cbr -e 210 -c 2 -i 36 -a 2 -x {3.0 2.0 33 ------- null}
h -t 0.22375 -s 3 -d 2 -p cbr -e 210 -c 2 -i 36 -a 2 -x {3.0 2.0 -1 ------- null}
r -t 0.224918 -s 3 -d 2 -p cbr -e 210 -c 2 -i 36 -a 2 -x {3.0 2.0 33 ------- null}
+ -t 0.2275 -s 3 -d 2 -p cbr -e 210 -c 2 -i 37 -a 2 -x {3.0 2.0 34 ------- null}
- -t 0.2275 -s 3 -d 2 -p cbr -e 210 -c 2 -i 37 -a 2 -x {3.0 2.0 34 ------- null}
h -t 0.2275 -s 3 -d 2 -p cbr -e 210 -c 2 -i 37 -a 2 -x {3.0 2.0 -1 ------- null}
r -t 0.228668 -s 3 -d 2 -p cbr -e 210 -c 2 -i 37 -a 2 -x {3.0 2.0 34 ------- null}
+ -t 0.23125 -s 3 -d 2 -p cbr -e 210 -c 2 -i 38 -a 2 -x {3.0 2.0 35 ------- null}
- -t 0.23125 -s 3 -d 2 -p cbr -e 210 -c 2 -i 38 -a 2 -x {3.0 2.0 35 ------- null}
h -t 0.23125 -s 3 -d 2 -p cbr -e 210 -c 2 -i 38 -a 2 -x {3.0 2.0 -1 ------- null}
r -t 0.232418 -s 3 -d 2 -p cbr -e 210 -c 2 -i 38 -a 2 -x {3.0 2.0 35 ------- null}
+ -t 0.235 -s 3 -d 2 -p cbr -e 210 -c 2 -i 39 -a 2 -x {3.0 2.0 36 ------- null}
- -t 0.235 -s 3 -d 2 -p cbr -e 210 -c 2 -i 39 -a 2 -x {3.0 2.0 36 ------- null}
h -t 0.235 -s 3 -d 2 -p cbr -e 210 -c 2 -i 39 -a 2 -x {3.0 2.0 -1 ------- null}
r -t 0.236168 -s 3 -d 2 -p cbr -e 210 -c 2 -i 39 -a 2 -x {3.0 2.0 36 ------- null}
+ -t 0.23875 -s 3 -d 2 -p cbr -e 210 -c 2 -i 40 -a 2 -x {3.0 2.0 37 ------- null}
- -t 0.23875 -s 3 -d 2 -p cbr -e 210 -c 2 -i 40 -a 2 -x {3.0 2.0 37 ------- null}
h -t 0.23875 -s 3 -d 2 -p cbr -e 210 -c 2 -i 40 -a 2 -x {3.0 2.0 -1 ------- null}
r -t 0.239918 -s 3 -d 2 -p cbr -e 210 -c 2 -i 40 -a 2 -x {3.0 2.0 37 ------- null}
+ -t 0.2425 -s 3 -d 2 -p cbr -e 210 -c 2 -i 41 -a 2 -x {3.0 2.0 38 ------- null}
- -t 0.2425 -s 3 -d 2 -p cbr -e 210 -c 2 -i 41 -a 2 -x {3.0 2.0 38 ------- null}
h -t 0.2425 -s 3 -d 2 -p cbr -e 210 -c 2 -i 41 -a 2 -x {3.0 2.0 -1 ------- null}
r -t 0.243668 -s 3 -d 2 -p cbr -e 210 -c 2 -i 41 -a 2 -x {3.0 2.0 38 ------- null}
+ -t 0.24625 -s 3 -d 2 -p cbr -e 210 -c 2 -i 42 -a 2 -x {3.0 2.0 39 ------- null}
- -t 0.24625 -s 3 -d 2 -p cbr -e 210 -c 2 -i 42 -a 2 -x {3.0 2.0 39 ------- null}
h -t 0.24625 -s 3 -d 2 -p cbr -e 210 -c 2 -i 42 -a 2 -x {3.0 2.0 -1 ------- null}
r -t 0.247418 -s 3 -d 2 -p cbr -e 210 -c 2 -i 42 -a 2 -x {3.0 2.0 39 ------- null}
+ -t 0.25 -s 3 -d 2 -p cbr -e 210 -c 2 -i 43 -a 2 -x {3.0 2.0 40 ------- null}
- -t 0.25 -s 3 -d 2 -p cbr -e 210 -c 2 -i 43 -a 2 -x {3.0 2.0 40 ------- null}
h -t 0.25 -s 3 -d 2 -p cbr -e 210 -c 2 -i 43 -a 2 -x {3.0 2.0 -1 ------- null}
r -t 0.251168 -s 3 -d 2 -p cbr -e 210 -c 2 -i 43 -a 2 -x {3.0 2.0 40 ------- null}
+ -t 0.25375 -s 3 -d 2 -p cbr -e 210 -c 2 -i 44 -a 2 -x {3.0 2.0 41 ------- null}
- -t 0.25375 -s 3 -d 2 -p cbr -e 210 -c 2 -i 44 -a 2 -x {3.0 2.0 41 ------- null}
h -t 0.25375 -s 3 -d 2 -p cbr -e 210 -c 2 -i 44 -a 2 -x {3.0 2.0 -1 ------- null}
r -t 0.254918 -s 3 -d 2 -p cbr -e 210 -c 2 -i 44 -a 2 -x {3.0 2.0 41 ------- null}
+ -t 0.2575 -s 3 -d 2 -p cbr -e 210 -c 2 -i 45 -a 2 -x {3.0 2.0 42 ------- null}
- -t 0.2575 -s 3 -d 2 -p cbr -e 210 -c 2 -i 45 -a 2 -x {3.0 2.0 42 ------- null}
h -t 0.2575 -s 3 -d 2 -p cbr -e 210 -c 2 -i 45 -a 2 -x {3.0 2.0 -1 ------- null}
r -t 0.258668 -s 3 -d 2 -p cbr -e 210 -c 2 -i 45 -a 2 -x {3.0 2.0 42 ------- null}
+ -t 0.26125 -s 3 -d 2 -p cbr -e 210 -c 2 -i 46 -a 2 -x {3.0 2.0 43 ------- null}
- -t 0.26125 -s 3 -d 2 -p cbr -e 210 -c 2 -i 46 -a 2 -x {3.0 2.0 43 ------- null}
h -t 0.26125 -s 3 -d 2 -p cbr -e 210 -c 2 -i 46 -a 2 -x {3.0 2.0 -1 ------- null}
r -t 0.262418 -s 3 -d 2 -p cbr -e 210 -c 2 -i 46 -a 2 -x {3.0 2.0 43 ------- null}
+ -t 0.265 -s 3 -d 2 -p cbr -e 210 -c 2 -i 47 -a 2 -x {3.0 2.0 44 ------- null}
- -t 0.265 -s 3 -d 2 -p cbr -e 210 -c 2 -i 47 -a 2 -x {3.0 2.0 44 ------- null}
h -t 0.265 -s 3 -d 2 -p cbr -e 210 -c 2 -i 47 -a 2 -x {3.0 2.0 -1 ------- null}
r -t 0.266168 -s 3 -d 2 -p cbr -e 210 -c 2 -i 47 -a 2 -x {3.0 2.0 44 ------- null}
+ -t 0.26875 -s 3 -d 2 -p cbr -e 210 -c 2 -i 48 -a 2 -x {3.0 2.0 45 ------- null}
- -t 0.26875 -s 3 -d 2 -p cbr -e 210 -c 2 -i 48 -a 2 -x {3.0 2.0 45 ------- null}
h -t 0.26875 -s 3 -d 2 -p cbr -e 210 -c 2 -i 48 -a 2 -x {3.0 2.0 -1 ------- null}
r -t 0.269918 -s 3 -d 2 -p cbr -e 210 -c 2 -i 48 -a 2 -x {3.0 2.0 45 ------- null}
+ -t 0.2725 -s 3 -d 2 -p cbr -e 210 -c 2 -i 49 -a 2 -x {3.0 2.0 46 ------- null}
- -t 0.2725 -s 3 -d 2 -p cbr -e 210 -c 2 -i 49 -a 2 -x {3.0 2.0 46 ------- null}
h -t 0.2725 -s 3 -d 2 -p cbr -e 210 -c 2 -i 49 -a 2 -x {3.0 2.0 -1 ------- null}
r -t 0.273668 -s 3 -d 2 -p cbr -e 210 -c 2 -i 49 -a 2 -x {3.0 2.0 46 ------- null}
+ -t 0.27625 -s 3 -d 2 -p cbr -e 210 -c 2 -i 50 -a 2 -x {3.0 2.0 47 ------- null}
- -t 0.27625 -s 3 -d 2 -p cbr -e 210 -c 2 -i 50 -a 2 -x {3.0 2.0 47 ------- null}
h -t 0.27625 -s 3 -d 2 -p cbr -e 210 -c 2 -i 50 -a 2 -x {3.0 2.0 -1 ------- null}
r -t 0.277418 -s 3 -d 2 -p cbr -e 210 -c 2 -i 50 -a 2 -x {3.0 2.0 47 ------- null}
+ -t 0.28 -s 3 -d 2 -p cbr -e 210 -c 2 -i 51 -a 2 -x {3.0 2.0 48 ------- null}
- -t 0.28 -s 3 -d 2 -p cbr -e 210 -c 2 -i 51 -a 2 -x {3.0 2.0 48 ------- null}
h -t 0.28 -s 3 -d 2 -p cbr -e 210 -c 2 -i 51 -a 2 -x {3.0 2.0 -1 ------- null}
r -t 0.281168 -s 3 -d 2 -p cbr -e 210 -c 2 -i 51 -a 2 -x {3.0 2.0 48 ------- null}
+ -t 0.28375 -s 3 -d 2 -p cbr -e 210 -c 2 -i 52 -a 2 -x {3.0 2.0 49 ------- null}
- -t 0.28375 -s 3 -d 2 -p cbr -e 210 -c 2 -i 52 -a 2 -x {3.0 2.0 49 ------- null}
h -t 0.28375 -s 3 -d 2 -p cbr -e 210 -c 2 -i 52 -a 2 -x {3.0 2.0 -1 ------- null}
r -t 0.284918 -s 3 -d 2 -p cbr -e 210 -c 2 -i 52 -a 2 -x {3.0 2.0 49 ------- null}
+ -t 0.2875 -s 3 -d 2 -p cbr -e 210 -c 2 -i 53 -a 2 -x {3.0 2.0 50 ------- null}
- -t 0.2875 -s 3 -d 2 -p cbr -e 210 -c 2 -i 53 -a 2 -x {3.0 2.0 50 ------- null}
h -t 0.2875 -s 3 -d 2 -p cbr -e 210 -c 2 -i 53 -a 2 -x {3.0 2.0 -1 ------- null}
r -t 0.288668 -s 3 -d 2 -p cbr -e 210 -c 2 -i 53 -a 2 -x {3.0 2.0 50 ------- null}
+ -t 0.29125 -s 3 -d 2 -p cbr -e 210 -c 2 -i 54 -a 2 -x {3.0 2.0 51 ------- null}
- -t 0.29125 -s 3 -d 2 -p cbr -e 210 -c 2 -i 54 -a 2 -x {3.0 2.0 51 ------- null}
h -t 0.29125 -s 3 -d 2 -p cbr -e 210 -c 2 -i 54 -a 2 -x {3.0 2.0 -1 ------- null}
r -t 0.292418 -s 3 -d 2 -p cbr -e 210 -c 2 -i 54 -a 2 -x {3.0 2.0 51 ------- null}
+ -t 0.295 -s 3 -d 2 -p cbr -e 210 -c 2 -i 55 -a 2 -x {3.0 2.0 52 ------- null}
- -t 0.295 -s 3 -d 2 -p cbr -e 210 -c 2 -i 55 -a 2 -x {3.0 2.0 52 ------- null}
h -t 0.295 -s 3 -d 2 -p cbr -e 210 -c 2 -i 55 -a 2 -x {3.0 2.0 -1 ------- null}
r -t 0.296168 -s 3 -d 2 -p cbr -e 210 -c 2 -i 55 -a 2 -x {3.0 2.0 52 ------- null}
+ -t 0.29875 -s 3 -d 2 -p cbr -e 210 -c 2 -i 56 -a 2 -x {3.0 2.0 53 ------- null}
- -t 0.29875 -s 3 -d 2 -p cbr -e 210 -c 2 -i 56 -a 2 -x {3.0 2.0 53 ------- null}
h -t 0.29875 -s 3 -d 2 -p cbr -e 210 -c 2 -i 56 -a 2 -x {3.0 2.0 -1 ------- null}
r -t 0.299918 -s 3 -d 2 -p cbr -e 210 -c 2 -i 56 -a 2 -x {3.0 2.0 53 ------- null}
+ -t 0.3025 -s 3 -d 2 -p cbr -e 210 -c 2 -i 57 -a 2 -x {3.0 2.0 54 ------- null}
- -t 0.3025 -s 3 -d 2 -p cbr -e 210 -c 2 -i 57 -a 2 -x {3.0 2.0 54 ------- null}
h -t 0.3025 -s 3 -d 2 -p cbr -e 210 -c 2 -i 57 -a 2 -x {3.0 2.0 -1 ------- null}
r -t 0.303668 -s 3 -d 2 -p cbr -e 210 -c 2 -i 57 -a 2 -x {3.0 2.0 54 ------- null}
+ -t 0.30625 -s 3 -d 2 -p cbr -e 210 -c 2 -i 58 -a 2 -x {3.0 2.0 55 ------- null}
- -t 0.30625 -s 3 -d 2 -p cbr -e 210 -c 2 -i 58 -a 2 -x {3.0 2.0 55 ------- null}
h -t 0.30625 -s 3 -d 2 -p cbr -e 210 -c 2 -i 58 -a 2 -x {3.0 2.0 -1 ------- null}
r -t 0.307418 -s 3 -d 2 -p cbr -e 210 -c 2 -i 58 -a 2 -x {3.0 2.0 55 ------- null}
+ -t 0.31 -s 3 -d 2 -p cbr -e 210 -c 2 -i 59 -a 2 -x {3.0 2.0 56 ------- null}
- -t 0.31 -s 3 -d 2 -p cbr -e 210 -c 2 -i 59 -a 2 -x {3.0 2.0 56 ------- null}
h -t 0.31 -s 3 -d 2 -p cbr -e 210 -c 2 -i 59 -a 2 -x {3.0 2.0 -1 ------- null}
r -t 0.311168 -s 3 -d 2 -p cbr -e 210 -c 2 -i 59 -a 2 -x {3.0 2.0 56 ------- null}
+ -t 0.31375 -s 3 -d 2 -p cbr -e 210 -c 2 -i 60 -a 2 -x {3.0 2.0 57 ------- null}
- -t 0.31375 -s 3 -d 2 -p cbr -e 210 -c 2 -i 60 -a 2 -x {3.0 2.0 57 ------- null}
h -t 0.31375 -s 3 -d 2 -p cbr -e 210 -c 2 -i 60 -a 2 -x {3.0 2.0 -1 ------- null}
r -t 0.314918 -s 3 -d 2 -p cbr -e 210 -c 2 -i 60 -a 2 -x {3.0 2.0 57 ------- null}
+ -t 0.3175 -s 3 -d 2 -p cbr -e 210 -c 2 -i 61 -a 2 -x {3.0 2.0 58 ------- null}
- -t 0.3175 -s 3 -d 2 -p cbr -e 210 -c 2 -i 61 -a 2 -x {3.0 2.0 58 ------- null}
h -t 0.3175 -s 3 -d 2 -p cbr -e 210 -c 2 -i 61 -a 2 -x {3.0 2.0 -1 ------- null}
r -t 0.318668 -s 3 -d 2 -p cbr -e 210 -c 2 -i 61 -a 2 -x {3.0 2.0 58 ------- null}
+ -t 0.32125 -s 3 -d 2 -p cbr -e 210 -c 2 -i 62 -a 2 -x {3.0 2.0 59 ------- null}
- -t 0.32125 -s 3 -d 2 -p cbr -e 210 -c 2 -i 62 -a 2 -x {3.0 2.0 59 ------- null}
h -t 0.32125 -s 3 -d 2 -p cbr -e 210 -c 2 -i 62 -a 2 -x {3.0 2.0 -1 ------- null}
r -t 0.322418 -s 3 -d 2 -p cbr -e 210 -c 2 -i 62 -a 2 -x {3.0 2.0 59 ------- null}
+ -t 0.325 -s 3 -d 2 -p cbr -e 210 -c 2 -i 63 -a 2 -x {3.0 2.0 60 ------- null}
- -t 0.325 -s 3 -d 2 -p cbr -e 210 -c 2 -i 63 -a 2 -x {3.0 2.0 60 ------- null}
h -t 0.325 -s 3 -d 2 -p cbr -e 210 -c 2 -i 63 -a 2 -x {3.0 2.0 -1 ------- null}
r -t 0.326168 -s 3 -d 2 -p cbr -e 210 -c 2 -i 63 -a 2 -x {3.0 2.0 60 ------- null}
+ -t 0.32875 -s 3 -d 2 -p cbr -e 210 -c 2 -i 64 -a 2 -x {3.0 2.0 61 ------- null}
- -t 0.32875 -s 3 -d 2 -p cbr -e 210 -c 2 -i 64 -a 2 -x {3.0 2.0 61 ------- null}
h -t 0.32875 -s 3 -d 2 -p cbr -e 210 -c 2 -i 64 -a 2 -x {3.0 2.0 -1 ------- null}
r -t 0.329918 -s 3 -d 2 -p cbr -e 210 -c 2 -i 64 -a 2 -x {3.0 2.0 61 ------- null}
+ -t 0.3325 -s 3 -d 2 -p cbr -e 210 -c 2 -i 65 -a 2 -x {3.0 2.0 62 ------- null}
- -t 0.3325 -s 3 -d 2 -p cbr -e 210 -c 2 -i 65 -a 2 -x {3.0 2.0 62 ------- null}
h -t 0.3325 -s 3 -d 2 -p cbr -e 210 -c 2 -i 65 -a 2 -x {3.0 2.0 -1 ------- null}
r -t 0.333668 -s 3 -d 2 -p cbr -e 210 -c 2 -i 65 -a 2 -x {3.0 2.0 62 ------- null}
+ -t 0.33625 -s 3 -d 2 -p cbr -e 210 -c 2 -i 66 -a 2 -x {3.0 2.0 63 ------- null}
- -t 0.33625 -s 3 -d 2 -p cbr -e 210 -c 2 -i 66 -a 2 -x {3.0 2.0 63 ------- null}
h -t 0.33625 -s 3 -d 2 -p cbr -e 210 -c 2 -i 66 -a 2 -x {3.0 2.0 -1 ------- null}
r -t 0.337418 -s 3 -d 2 -p cbr -e 210 -c 2 -i 66 -a 2 -x {3.0 2.0 63 ------- null}
+ -t 0.34 -s 3 -d 2 -p cbr -e 210 -c 2 -i 67 -a 2 -x {3.0 2.0 64 ------- null}
- -t 0.34 -s 3 -d 2 -p cbr -e 210 -c 2 -i 67 -a 2 -x {3.0 2.0 64 ------- null}
h -t 0.34 -s 3 -d 2 -p cbr -e 210 -c 2 -i 67 -a 2 -x {3.0 2.0 -1 ------- null}
r -t 0.341168 -s 3 -d 2 -p cbr -e 210 -c 2 -i 67 -a 2 -x {3.0 2.0 64 ------- null}
+ -t 0.34375 -s 3 -d 2 -p cbr -e 210 -c 2 -i 68 -a 2 -x {3.0 2.0 65 ------- null}
- -t 0.34375 -s 3 -d 2 -p cbr -e 210 -c 2 -i 68 -a 2 -x {3.0 2.0 65 ------- null}
h -t 0.34375 -s 3 -d 2 -p cbr -e 210 -c 2 -i 68 -a 2 -x {3.0 2.0 -1 ------- null}
r -t 0.344918 -s 3 -d 2 -p cbr -e 210 -c 2 -i 68 -a 2 -x {3.0 2.0 65 ------- null}
+ -t 0.347499999999999 -s 3 -d 2 -p cbr -e 210 -c 2 -i 69 -a 2 -x {3.0 2.0 66 ------- null}
- -t 0.347499999999999 -s 3 -d 2 -p cbr -e 210 -c 2 -i 69 -a 2 -x {3.0 2.0 66 ------- null}
h -t 0.347499999999999 -s 3 -d 2 -p cbr -e 210 -c 2 -i 69 -a 2 -x {3.0 2.0 -1 ------- null}
r -t 0.348667999999999 -s 3 -d 2 -p cbr -e 210 -c 2 -i 69 -a 2 -x {3.0 2.0 66 ------- null}
+ -t 0.351249999999999 -s 3 -d 2 -p cbr -e 210 -c 2 -i 70 -a 2 -x {3.0 2.0 67 ------- null}
- -t 0.351249999999999 -s 3 -d 2 -p cbr -e 210 -c 2 -i 70 -a 2 -x {3.0 2.0 67 ------- null}
h -t 0.351249999999999 -s 3 -d 2 -p cbr -e 210 -c 2 -i 70 -a 2 -x {3.0 2.0 -1 ------- null}
r -t 0.352417999999999 -s 3 -d 2 -p cbr -e 210 -c 2 -i 70 -a 2 -x {3.0 2.0 67 ------- null}
+ -t 0.354999999999999 -s 3 -d 2 -p cbr -e 210 -c 2 -i 71 -a 2 -x {3.0 2.0 68 ------- null}
- -t 0.354999999999999 -s 3 -d 2 -p cbr -e 210 -c 2 -i 71 -a 2 -x {3.0 2.0 68 ------- null}
h -t 0.354999999999999 -s 3 -d 2 -p cbr -e 210 -c 2 -i 71 -a 2 -x {3.0 2.0 -1 ------- null}
r -t 0.356167999999999 -s 3 -d 2 -p cbr -e 210 -c 2 -i 71 -a 2 -x {3.0 2.0 68 ------- null}
+ -t 0.358749999999999 -s 3 -d 2 -p cbr -e 210 -c 2 -i 72 -a 2 -x {3.0 2.0 69 ------- null}
- -t 0.358749999999999 -s 3 -d 2 -p cbr -e 210 -c 2 -i 72 -a 2 -x {3.0 2.0 69 ------- null}
h -t 0.358749999999999 -s 3 -d 2 -p cbr -e 210 -c 2 -i 72 -a 2 -x {3.0 2.0 -1 ------- null}
r -t 0.359917999999999 -s 3 -d 2 -p cbr -e 210 -c 2 -i 72 -a 2 -x {3.0 2.0 69 ------- null}
+ -t 0.362499999999999 -s 3 -d 2 -p cbr -e 210 -c 2 -i 73 -a 2 -x {3.0 2.0 70 ------- null}
- -t 0.362499999999999 -s 3 -d 2 -p cbr -e 210 -c 2 -i 73 -a 2 -x {3.0 2.0 70 ------- null}
h -t 0.362499999999999 -s 3 -d 2 -p cbr -e 210 -c 2 -i 73 -a 2 -x {3.0 2.0 -1 ------- null}
r -t 0.363667999999999 -s 3 -d 2 -p cbr -e 210 -c 2 -i 73 -a 2 -x {3.0 2.0 70 ------- null}
+ -t 0.366249999999999 -s 3 -d 2 -p cbr -e 210 -c 2 -i 74 -a 2 -x {3.0 2.0 71 ------- null}
- -t 0.366249999999999 -s 3 -d 2 -p cbr -e 210 -c 2 -i 74 -a 2 -x {3.0 2.0 71 ------- null}
h -t 0.366249999999999 -s 3 -d 2 -p cbr -e 210 -c 2 -i 74 -a 2 -x {3.0 2.0 -1 ------- null}
r -t 0.367417999999999 -s 3 -d 2 -p cbr -e 210 -c 2 -i 74 -a 2 -x {3.0 2.0 71 ------- null}
+ -t 0.369999999999999 -s 3 -d 2 -p cbr -e 210 -c 2 -i 75 -a 2 -x {3.0 2.0 72 ------- null}
- -t 0.369999999999999 -s 3 -d 2 -p cbr -e 210 -c 2 -i 75 -a 2 -x {3.0 2.0 72 ------- null}
h -t 0.369999999999999 -s 3 -d 2 -p cbr -e 210 -c 2 -i 75 -a 2 -x {3.0 2.0 -1 ------- null}
r -t 0.371167999999999 -s 3 -d 2 -p cbr -e 210 -c 2 -i 75 -a 2 -x {3.0 2.0 72 ------- null}
+ -t 0.373749999999999 -s 3 -d 2 -p cbr -e 210 -c 2 -i 76 -a 2 -x {3.0 2.0 73 ------- null}
- -t 0.373749999999999 -s 3 -d 2 -p cbr -e 210 -c 2 -i 76 -a 2 -x {3.0 2.0 73 ------- null}
h -t 0.373749999999999 -s 3 -d 2 -p cbr -e 210 -c 2 -i 76 -a 2 -x {3.0 2.0 -1 ------- null}
r -t 0.374917999999999 -s 3 -d 2 -p cbr -e 210 -c 2 -i 76 -a 2 -x {3.0 2.0 73 ------- null}
+ -t 0.377499999999999 -s 3 -d 2 -p cbr -e 210 -c 2 -i 77 -a 2 -x {3.0 2.0 74 ------- null}
- -t 0.377499999999999 -s 3 -d 2 -p cbr -e 210 -c 2 -i 77 -a 2 -x {3.0 2.0 74 ------- null}
h -t 0.377499999999999 -s 3 -d 2 -p cbr -e 210 -c 2 -i 77 -a 2 -x {3.0 2.0 -1 ------- null}
r -t 0.378667999999999 -s 3 -d 2 -p cbr -e 210 -c 2 -i 77 -a 2 -x {3.0 2.0 74 ------- null}
+ -t 0.381249999999999 -s 3 -d 2 -p cbr -e 210 -c 2 -i 78 -a 2 -x {3.0 2.0 75 ------- null}
- -t 0.381249999999999 -s 3 -d 2 -p cbr -e 210 -c 2 -i 78 -a 2 -x {3.0 2.0 75 ------- null}
h -t 0.381249999999999 -s 3 -d 2 -p cbr -e 210 -c 2 -i 78 -a 2 -x {3.0 2.0 -1 ------- null}
r -t 0.382417999999999 -s 3 -d 2 -p cbr -e 210 -c 2 -i 78 -a 2 -x {3.0 2.0 75 ------- null}
+ -t 0.384999999999999 -s 3 -d 2 -p cbr -e 210 -c 2 -i 79 -a 2 -x {3.0 2.0 76 ------- null}
- -t 0.384999999999999 -s 3 -d 2 -p cbr -e 210 -c 2 -i 79 -a 2 -x {3.0 2.0 76 ------- null}
h -t 0.384999999999999 -s 3 -d 2 -p cbr -e 210 -c 2 -i 79 -a 2 -x {3.0 2.0 -1 ------- null}
r -t 0.386167999999999 -s 3 -d 2 -p cbr -e 210 -c 2 -i 79 -a 2 -x {3.0 2.0 76 ------- null}
+ -t 0.388749999999999 -s 3 -d 2 -p cbr -e 210 -c 2 -i 80 -a 2 -x {3.0 2.0 77 ------- null}
- -t 0.388749999999999 -s 3 -d 2 -p cbr -e 210 -c 2 -i 80 -a 2 -x {3.0 2.0 77 ------- null}
h -t 0.388749999999999 -s 3 -d 2 -p cbr -e 210 -c 2 -i 80 -a 2 -x {3.0 2.0 -1 ------- null}
r -t 0.389917999999999 -s 3 -d 2 -p cbr -e 210 -c 2 -i 80 -a 2 -x {3.0 2.0 77 ------- null}
+ -t 0.392499999999999 -s 3 -d 2 -p cbr -e 210 -c 2 -i 81 -a 2 -x {3.0 2.0 78 ------- null}
- -t 0.392499999999999 -s 3 -d 2 -p cbr -e 210 -c 2 -i 81 -a 2 -x {3.0 2.0 78 ------- null}
h -t 0.392499999999999 -s 3 -d 2 -p cbr -e 210 -c 2 -i 81 -a 2 -x {3.0 2.0 -1 ------- null}
r -t 0.393667999999999 -s 3 -d 2 -p cbr -e 210 -c 2 -i 81 -a 2 -x {3.0 2.0 78 ------- null}
+ -t 0.396249999999999 -s 3 -d 2 -p cbr -e 210 -c 2 -i 82 -a 2 -x {3.0 2.0 79 ------- null}
- -t 0.396249999999999 -s 3 -d 2 -p cbr -e 210 -c 2 -i 82 -a 2 -x {3.0 2.0 79 ------- null}
h -t 0.396249999999999 -s 3 -d 2 -p cbr -e 210 -c 2 -i 82 -a 2 -x {3.0 2.0 -1 ------- null}
r -t 0.397417999999999 -s 3 -d 2 -p cbr -e 210 -c 2 -i 82 -a 2 -x {3.0 2.0 79 ------- null}
+ -t 0.399999999999999 -s 3 -d 2 -p cbr -e 210 -c 2 -i 83 -a 2 -x {3.0 2.0 80 ------- null}
- -t 0.399999999999999 -s 3 -d 2 -p cbr -e 210 -c 2 -i 83 -a 2 -x {3.0 2.0 80 ------- null}
h -t 0.399999999999999 -s 3 -d 2 -p cbr -e 210 -c 2 -i 83 -a 2 -x {3.0 2.0 -1 ------- null}
r -t 0.401167999999999 -s 3 -d 2 -p cbr -e 210 -c 2 -i 83 -a 2 -x {3.0 2.0 80 ------- null}
+ -t 0.403749999999999 -s 3 -d 2 -p cbr -e 210 -c 2 -i 84 -a 2 -x {3.0 2.0 81 ------- null}
- -t 0.403749999999999 -s 3 -d 2 -p cbr -e 210 -c 2 -i 84 -a 2 -x {3.0 2.0 81 ------- null}
h -t 0.403749999999999 -s 3 -d 2 -p cbr -e 210 -c 2 -i 84 -a 2 -x {3.0 2.0 -1 ------- null}
r -t 0.404917999999999 -s 3 -d 2 -p cbr -e 210 -c 2 -i 84 -a 2 -x {3.0 2.0 81 ------- null}
+ -t 0.407499999999999 -s 3 -d 2 -p cbr -e 210 -c 2 -i 85 -a 2 -x {3.0 2.0 82 ------- null}
- -t 0.407499999999999 -s 3 -d 2 -p cbr -e 210 -c 2 -i 85 -a 2 -x {3.0 2.0 82 ------- null}
h -t 0.407499999999999 -s 3 -d 2 -p cbr -e 210 -c 2 -i 85 -a 2 -x {3.0 2.0 -1 ------- null}
r -t 0.408667999999999 -s 3 -d 2 -p cbr -e 210 -c 2 -i 85 -a 2 -x {3.0 2.0 82 ------- null}
+ -t 0.411249999999999 -s 3 -d 2 -p cbr -e 210 -c 2 -i 86 -a 2 -x {3.0 2.0 83 ------- null}
- -t 0.411249999999999 -s 3 -d 2 -p cbr -e 210 -c 2 -i 86 -a 2 -x {3.0 2.0 83 ------- null}
h -t 0.411249999999999 -s 3 -d 2 -p cbr -e 210 -c 2 -i 86 -a 2 -x {3.0 2.0 -1 ------- null}
r -t 0.412417999999999 -s 3 -d 2 -p cbr -e 210 -c 2 -i 86 -a 2 -x {3.0 2.0 83 ------- null}
+ -t 0.414999999999999 -s 3 -d 2 -p cbr -e 210 -c 2 -i 87 -a 2 -x {3.0 2.0 84 ------- null}
- -t 0.414999999999999 -s 3 -d 2 -p cbr -e 210 -c 2 -i 87 -a 2 -x {3.0 2.0 84 ------- null}
h -t 0.414999999999999 -s 3 -d 2 -p cbr -e 210 -c 2 -i 87 -a 2 -x {3.0 2.0 -1 ------- null}