+ 0.1 3 2 cbr 210 ------- 2 3.0 2.0 0 0
- 0.1 3 2 cbr 210 ------- 2 3.0 2.0 0 0
+ 0.1 1 0 tcp 40 ------- 3 1.0 0.1 0 1
- 0.1 1 0 tcp 40 ------- 3 1.0 0.1 0 1
+ 0.1 0 4 tcp 40 ------- 1 0.0 4.0 0 2
d 0.1 0 4 tcp 40 ------- 1 0.0 4.0 0 2
r 0.101032 1 0 tcp 40 ------- 3 1.0 0.1 0 1
+ 0.101032 0 1 ack 40 ------- 3 0.1 1.0 0 3
d 0.101032 0 1 ack 40 ------- 3 0.1 1.0 0 3
r 0.101168 3 2 cbr 210 ------- 2 3.0 2.0 0 0
+ 0.10375 3 2 cbr 210 ------- 2 3.0 2.0 1 4
- 0.10375 3 2 cbr 210 ------- 2 3.0 2.0 1 4
r 0.104918 3 2 cbr 210 ------- 2 3.0 2.0 1 4
+ 0.1075 3 2 cbr 210 ------- 2 3.0 2.0 2 5
- 0.1075 3 2 cbr 210 ------- 2 3.0 2.0 2 5
r 0.108668 3 2 cbr 210 ------- 2 3.0 2.0 2 5
+ 0.11125 3 2 cbr 210 ------- 2 3.0 2.0 3 6
- 0.11125 3 2 cbr 210 ------- 2 3.0 2.0 3 6
r 0.112418 3 2 cbr 210 ------- 2 3.0 2.0 3 6
+ 0.115 3 2 cbr 210 ------- 2 3.0 2.0 4 7
- 0.115 3 2 cbr 210 ------- 2 3.0 2.0 4 7
r 0.116168 3 2 cbr 210 ------- 2 3.0 2.0 4 7
+ 0.11875 3 2 cbr 210 ------- 2 3.0 2.0 5 8
- 0.11875 3 2 cbr 210 ------- 2 3.0 2.0 5 8
r 0.119918 3 2 cbr 210 ------- 2 3.0 2.0 5 8
+ 0.1225 3 2 cbr 210 ------- 2 3.0 2.0 6 9
- 0.1225 3 2 cbr 210 ------- 2 3.0 2.0 6 9
r 0.123668 3 2 cbr 210 ------- 2 3.0 2.0 6 9
+ 0.12625 3 2 cbr 210 ------- 2 3.0 2.0 7 10
- 0.12625 3 2 cbr 210 ------- 2 3.0 2.0 7 10
r 0.127418 3 2 cbr 210 ------- 2 3.0 2.0 7 10
+ 0.13 3 2 cbr 210 ------- 2 3.0 2.0 8 11
- 0.13 3 2 cbr 210 ------- 2 3.0 2.0 8 11
r 0.131168 3 2 cbr 210 ------- 2 3.0 2.0 8 11
+ 0.13375 3 2 cbr 210 ------- 2 3.0 2.0 9 12
- 0.13375 3 2 cbr 210 ------- 2 3.0 2.0 9 12
r 0.134918 3 2 cbr 210 ------- 2 3.0 2.0 9 12
+ 0.1375 3 2 cbr 210 ------- 2 3.0 2.0 10 13
- 0.1375 3 2 cbr 210 ------- 2 3.0 2.0 10 13
r 0.138668 3 2 cbr 210 ------- 2 3.0 2.0 10 13
+ 0.14125 3 2 cbr 210 ------- 2 3.0 2.0 11 14
- 0.14125 3 2 cbr 210 ------- 2 3.0 2.0 11 14
r 0.142418 3 2 cbr 210 ------- 2 3.0 2.0 11 14
+ 0.145 3 2 cbr 210 ------- 2 3.0 2.0 12 15
- 0.145 3 2 cbr 210 ------- 2 3.0 2.0 12 15
r 0.146168 3 2 cbr 210 ------- 2 3.0 2.0 12 15
+ 0.14875 3 2 cbr 210 ------- 2 3.0 2.0 13 16
- 0.14875 3 2 cbr 210 ------- 2 3.0 2.0 13 16
r 0.149918 3 2 cbr 210 ------- 2 3.0 2.0 13 16
+ 0.1525 3 2 cbr 210 ------- 2 3.0 2.0 14 17
- 0.1525 3 2 cbr 210 ------- 2 3.0 2.0 14 17
r 0.153668 3 2 cbr 210 ------- 2 3.0 2.0 14 17
+ 0.15625 3 2 cbr 210 ------- 2 3.0 2.0 15 18
- 0.15625 3 2 cbr 210 ------- 2 3.0 2.0 15 18
r 0.157418 3 2 cbr 210 ------- 2 3.0 2.0 15 18
+ 0.16 3 2 cbr 210 ------- 2 3.0 2.0 16 19
- 0.16 3 2 cbr 210 ------- 2 3.0 2.0 16 19
r 0.161168 3 2 cbr 210 ------- 2 3.0 2.0 16 19
+ 0.16375 3 2 cbr 210 ------- 2 3.0 2.0 17 20
- 0.16375 3 2 cbr 210 ------- 2 3.0 2.0 17 20
r 0.164918 3 2 cbr 210 ------- 2 3.0 2.0 17 20
+ 0.1675 3 2 cbr 210 ------- 2 3.0 2.0 18 21
- 0.1675 3 2 cbr 210 ------- 2 3.0 2.0 18 21
r 0.168668 3 2 cbr 210 ------- 2 3.0 2.0 18 21
+ 0.17125 3 2 cbr 210 ------- 2 3.0 2.0 19 22
- 0.17125 3 2 cbr 210 ------- 2 3.0 2.0 19 22
r 0.172418 3 2 cbr 210 ------- 2 3.0 2.0 19 22
+ 0.175 3 2 cbr 210 ------- 2 3.0 2.0 20 23
- 0.175 3 2 cbr 210 ------- 2 3.0 2.0 20 23
r 0.176168 3 2 cbr 210 ------- 2 3.0 2.0 20 23
+ 0.17875 3 2 cbr 210 ------- 2 3.0 2.0 21 24
- 0.17875 3 2 cbr 210 ------- 2 3.0 2.0 21 24
r 0.179918 3 2 cbr 210 ------- 2 3.0 2.0 21 24
+ 0.1825 3 2 cbr 210 ------- 2 3.0 2.0 22 25
- 0.1825 3 2 cbr 210 ------- 2 3.0 2.0 22 25
r 0.183668 3 2 cbr 210 ------- 2 3.0 2.0 22 25
+ 0.18625 3 2 cbr 210 ------- 2 3.0 2.0 23 26
- 0.18625 3 2 cbr 210 ------- 2 3.0 2.0 23 26
r 0.187418 3 2 cbr 210 ------- 2 3.0 2.0 23 26
+ 0.19 3 2 cbr 210 ------- 2 3.0 2.0 24 27
- 0.19 3 2 cbr 210 ------- 2 3.0 2.0 24 27
r 0.191168 3 2 cbr 210 ------- 2 3.0 2.0 24 27
+ 0.19375 3 2 cbr 210 ------- 2 3.0 2.0 25 28
- 0.19375 3 2 cbr 210 ------- 2 3.0 2.0 25 28
r 0.194918 3 2 cbr 210 ------- 2 3.0 2.0 25 28
+ 0.1975 3 2 cbr 210 ------- 2 3.0 2.0 26 29
- 0.1975 3 2 cbr 210 ------- 2 3.0 2.0 26 29
r 0.198668 3 2 cbr 210 ------- 2 3.0 2.0 26 29
+ 0.20125 3 2 cbr 210 ------- 2 3.0 2.0 27 30
- 0.20125 3 2 cbr 210 ------- 2 3.0 2.0 27 30
r 0.202418 3 2 cbr 210 ------- 2 3.0 2.0 27 30
+ 0.205 3 2 cbr 210 ------- 2 3.0 2.0 28 31
- 0.205 3 2 cbr 210 ------- 2 3.0 2.0 28 31
r 0.206168 3 2 cbr 210 ------- 2 3.0 2.0 28 31
+ 0.20875 3 2 cbr 210 ------- 2 3.0 2.0 29 32
- 0.20875 3 2 cbr 210 ------- 2 3.0 2.0 29 32
r 0.209918 3 2 cbr 210 ------- 2 3.0 2.0 29 32
+ 0.2125 3 2 cbr 210 ------- 2 3.0 2.0 30 33
- 0.2125 3 2 cbr 210 ------- 2 3.0 2.0 30 33
r 0.213668 3 2 cbr 210 ------- 2 3.0 2.0 30 33
+ 0.21625 3 2 cbr 210 ------- 2 3.0 2.0 31 34
- 0.21625 3 2 cbr 210 ------- 2 3.0 2.0 31 34
r 0.217418 3 2 cbr 210 ------- 2 3.0 2.0 31 34
+ 0.22 3 2 cbr 210 ------- 2 3.0 2.0 32 35
- 0.22 3 2 cbr 210 ------- 2 3.0 2.0 32 35
r 0.221168 3 2 cbr 210 ------- 2 3.0 2.0 32 35
+ 0.22375 3 2 cbr 210 ------- 2 3.0 2.0 33 36
- 0.22375 3 2 cbr 210 ------- 2 3.0 2.0 33 36
r 0.224918 3 2 cbr 210 ------- 2 3.0 2.0 33 36
+ 0.2275 3 2 cbr 210 ------- 2 3.0 2.0 34 37
- 0.2275 3 2 cbr 210 ------- 2 3.0 2.0 34 37
r 0.228668 3 2 cbr 210 ------- 2 3.0 2.0 34 37
+ 0.23125 3 2 cbr 210 ------- 2 3.0 2.0 35 38
- 0.23125 3 2 cbr 210 ------- 2 3.0 2.0 35 38
r 0.232418 3 2 cbr 210 ------- 2 3.0 2.0 35 38
+ 0.235 3 2 cbr 210 ------- 2 3.0 2.0 36 39
- 0.235 3 2 cbr 210 ------- 2 3.0 2.0 36 39
r 0.236168 3 2 cbr 210 ------- 2 3.0 2.0 36 39
+ 0.23875 3 2 cbr 210 ------- 2 3.0 2.0 37 40
- 0.23875 3 2 cbr 210 ------- 2 3.0 2.0 37 40
r 0.239918 3 2 cbr 210 ------- 2 3.0 2.0 37 40
+ 0.2425 3 2 cbr 210 ------- 2 3.0 2.0 38 41
- 0.2425 3 2 cbr 210 ------- 2 3.0 2.0 38 41
r 0.243668 3 2 cbr 210 ------- 2 3.0 2.0 38 41
+ 0.24625 3 2 cbr 210 ------- 2 3.0 2.0 39 42
- 0.24625 3 2 cbr 210 ------- 2 3.0 2.0 39 42
r 0.247418 3 2 cbr 210 ------- 2 3.0 2.0 39 42
+ 0.25 3 2 cbr 210 ------- 2 3.0 2.0 40 43
- 0.25 3 2 cbr 210 ------- 2 3.0 2.0 40 43
r 0.251168 3 2 cbr 210 ------- 2 3.0 2.0 40 43
+ 0.25375 3 2 cbr 210 ------- 2 3.0 2.0 41 44
- 0.25375 3 2 cbr 210 ------- 2 3.0 2.0 41 44
r 0.254918 3 2 cbr 210 ------- 2 3.0 2.0 41 44
+ 0.2575 3 2 cbr 210 ------- 2 3.0 2.0 42 45
- 0.2575 3 2 cbr 210 ------- 2 3.0 2.0 42 45
r 0.258668 3 2 cbr 210 ------- 2 3.0 2.0 42 45
+ 0.26125 3 2 cbr 210 ------- 2 3.0 2.0 43 46
- 0.26125 3 2 cbr 210 ------- 2 3.0 2.0 43 46
r 0.262418 3 2 cbr 210 ------- 2 3.0 2.0 43 46
+ 0.265 3 2 cbr 210 ------- 2 3.0 2.0 44 47
- 0.265 3 2 cbr 210 ------- 2 3.0 2.0 44 47
r 0.266168 3 2 cbr 210 ------- 2 3.0 2.0 44 47
+ 0.26875 3 2 cbr 210 ------- 2 3.0 2.0 45 48
- 0.26875 3 2 cbr 210 ------- 2 3.0 2.0 45 48
r 0.269918 3 2 cbr 210 ------- 2 3.0 2.0 45 48
+ 0.2725 3 2 cbr 210 ------- 2 3.0 2.0 46 49
- 0.2725 3 2 cbr 210 ------- 2 3.0 2.0 46 49
r 0.273668 3 2 cbr 210 ------- 2 3.0 2.0 46 49
+ 0.27625 3 2 cbr 210 ------- 2 3.0 2.0 47 50
- 0.27625 3 2 cbr 210 ------- 2 3.0 2.0 47 50
r 0.277418 3 2 cbr 210 ------- 2 3.0 2.0 47 50
+ 0.28 3 2 cbr 210 ------- 2 3.0 2.0 48 51
- 0.28 3 2 cbr 210 ------- 2 3.0 2.0 48 51
r 0.281168 3 2 cbr 210 ------- 2 3.0 2.0 48 51
+ 0.28375 3 2 cbr 210 ------- 2 3.0 2.0 49 52
- 0.28375 3 2 cbr 210 ------- 2 3.0 2.0 49 52
r 0.284918 3 2 cbr 210 ------- 2 3.0 2.0 49 52
+ 0.2875 3 2 cbr 210 ------- 2 3.0 2.0 50 53
- 0.2875 3 2 cbr 210 ------- 2 3.0 2.0 50 53
r 0.288668 3 2 cbr 210 ------- 2 3.0 2.0 50 53
+ 0.29125 3 2 cbr 210 ------- 2 3.0 2.0 51 54
- 0.29125 3 2 cbr 210 ------- 2 3.0 2.0 51 54
r 0.292418 3 2 cbr 210 ------- 2 3.0 2.0 51 54
+ 0.295 3 2 cbr 210 ------- 2 3.0 2.0 52 55
- 0.295 3 2 cbr 210 ------- 2 3.0 2.0 52 55
r 0.296168 3 2 cbr 210 ------- 2 3.0 2.0 52 55
+ 0.29875 3 2 cbr 210 ------- 2 3.0 2.0 53 56
- 0.29875 3 2 cbr 210 ------- 2 3.0 2.0 53 56
r 0.299918 3 2 cbr 210 ------- 2 3.0 2.0 53 56
+ 0.3025 3 2 cbr 210 ------- 2 3.0 2.0 54 57
- 0.3025 3 2 cbr 210 ------- 2 3.0 2.0 54 57
r 0.303668 3 2 cbr 210 ------- 2 3.0 2.0 54 57
+ 0.30625 3 2 cbr 210 ------- 2 3.0 2.0 55 58
- 0.30625 3 2 cbr 210 ------- 2 3.0 2.0 55 58
r 0.307418 3 2 cbr 210 ------- 2 3.0 2.0 55 58
+ 0.31 3 2 cbr 210 ------- 2 3.0 2.0 56 59
- 0.31 3 2 cbr 210 ------- 2 3.0 2.0 56 59
r 0.311168 3 2 cbr 210 ------- 2 3.0 2.0 56 59
+ 0.31375 3 2 cbr 210 ------- 2 3.0 2.0 57 60
- 0.31375 3 2 cbr 210 ------- 2 3.0 2.0 57 60
r 0.314918 3 2 cbr 210 ------- 2 3.0 2.0 57 60
+ 0.3175 3 2 cbr 210 ------- 2 3.0 2.0 58 61
- 0.3175 3 2 cbr 210 ------- 2 3.0 2.0 58 61
r 0.318668 3 2 cbr 210 ------- 2 3.0 2.0 58 61
+ 0.32125 3 2 cbr 210 ------- 2 3.0 2.0 59 62
- 0.32125 3 2 cbr 210 ------- 2 3.0 2.0 59 62
r 0.322418 3 2 cbr 210 ------- 2 3.0 2.0 59 62
+ 0.325 3 2 cbr 210 ------- 2 3.0 2.0 60 63
- 0.325 3 2 cbr 210 ------- 2 3.0 2.0 60 63
r 0.326168 3 2 cbr 210 ------- 2 3.0 2.0 60 63
+ 0.32875 3 2 cbr 210 ------- 2 3.0 2.0 61 64
- 0.32875 3 2 cbr 210 ------- 2 3.0 2.0 61 64
r 0.329918 3 2 cbr 210 ------- 2 3.0 2.0 61 64
+ 0.3325 3 2 cbr 210 ------- 2 3.0 2.0 62 65
- 0.3325 3 2 cbr 210 ------- 2 3.0 2.0 62 65
r 0.333668 3 2 cbr 210 ------- 2 3.0 2.0 62 65
+ 0.33625 3 2 cbr 210 ------- 2 3.0 2.0 63 66
- 0.33625 3 2 cbr 210 ------- 2 3.0 2.0 63 66
r 0.337418 3 2 cbr 210 ------- 2 3.0 2.0 63 66
+ 0.34 3 2 cbr 210 ------- 2 3.0 2.0 64 67
- 0.34 3 2 cbr 210 ------- 2 3.0 2.0 64 67
r 0.341168 3 2 cbr 210 ------- 2 3.0 2.0 64 67
+ 0.34375 3 2 cbr 210 ------- 2 3.0 2.0 65 68
- 0.34375 3 2 cbr 210 ------- 2 3.0 2.0 65 68
r 0.344918 3 2 cbr 210 ------- 2 3.0 2.0 65 68
+ 0.3475 3 2 cbr 210 ------- 2 3.0 2.0 66 69
- 0.3475 3 2 cbr 210 ------- 2 3.0 2.0 66 69
r 0.348668 3 2 cbr 210 ------- 2 3.0 2.0 66 69
+ 0.35125 3 2 cbr 210 ------- 2 3.0 2.0 67 70
- 0.35125 3 2 cbr 210 ------- 2 3.0 2.0 67 70
r 0.352418 3 2 cbr 210 ------- 2 3.0 2.0 67 70
+ 0.355 3 2 cbr 210 ------- 2 3.0 2.0 68 71
- 0.355 3 2 cbr 210 ------- 2 3.0 2.0 68 71
r 0.356168 3 2 cbr 210 ------- 2 3.0 2.0 68 71
+ 0.35875 3 2 cbr 210 ------- 2 3.0 2.0 69 72
- 0.35875 3 2 cbr 210 ------- 2 3.0 2.0 69 72
r 0.359918 3 2 cbr 210 ------- 2 3.0 2.0 69 72
+ 0.3625 3 2 cbr 210 ------- 2 3.0 2.0 70 73
- 0.3625 3 2 cbr 210 ------- 2 3.0 2.0 70 73
r 0.363668 3 2 cbr 210 ------- 2 3.0 2.0 70 73
+ 0.36625 3 2 cbr 210 ------- 2 3.0 2.0 71 74
- 0.36625 3 2 cbr 210 ------- 2 3.0 2.0 71 74
r 0.367418 3 2 cbr 210 ------- 2 3.0 2.0 71 74
+ 0.37 3 2 cbr 210 ------- 2 3.0 2.0 72 75
- 0.37 3 2 cbr 210 ------- 2 3.0 2.0 72 75
r 0.371168 3 2 cbr 210 ------- 2 3.0 2.0 72 75
+ 0.37375 3 2 cbr 210 ------- 2 3.0 2.0 73 76
- 0.37375 3 2 cbr 210 ------- 2 3.0 2.0 73 76
r 0.374918 3 2 cbr 210 ------- 2 3.0 2.0 73 76
+ 0.3775 3 2 cbr 210 ------- 2 3.0 2.0 74 77
- 0.3775 3 2 cbr 210 ------- 2 3.0 2.0 74 77
r 0.378668 3 2 cbr 210 ------- 2 3.0 2.0 74 77
+ 0.38125 3 2 cbr 210 ------- 2 3.0 2.0 75 78
- 0.38125 3 2 cbr 210 ------- 2 3.0 2.0 75 78
r 0.382418 3 2 cbr 210 ------- 2 3.0 2.0 75 78
+ 0.385 3 2 cbr 210 ------- 2 3.0 2.0 76 79
- 0.385 3 2 cbr 210 ------- 2 3.0 2.0 76 79
r 0.386168 3 2 cbr 210 ------- 2 3.0 2.0 76 79
+ 0.38875 3 2 cbr 210 ------- 2 3.0 2.0 77 80
- 0.38875 3 2 cbr 210 ------- 2 3.0 2.0 77 80
r 0.389918 3 2 cbr 210 ------- 2 3.0 2.0 77 80
+ 0.3925 3 2 cbr 210 ------- 2 3.0 2.0 78 81
- 0.3925 3 2 cbr 210 ------- 2 3.0 2.0 78 81
r 0.393668 3 2 cbr 210 ------- 2 3.0 2.0 78 81
+ 0.39625 3 2 cbr 210 ------- 2 3.0 2.0 79 82
- 0.39625 3 2 cbr 210 ------- 2 3.0 2.0 79 82
r 0.397418 3 2 cbr 210 ------- 2 3.0 2.0 79 82
+ 0.4 3 2 cbr 210 ------- 2 3.0 2.0 80 83
- 0.4 3 2 cbr 210 ------- 2 3.0 2.0 80 83
r 0.401168 3 2 cbr 210 ------- 2 3.0 2.0 80 83
+ 0.40375 3 2 cbr 210 ------- 2 3.0 2.0 81 84
- 0.40375 3 2 cbr 210 ------- 2 3.0 2.0 81 84
r 0.404918 3 2 cbr 210 ------- 2 3.0 2.0 81 84
+ 0.4075 3 2 cbr 210 ------- 2 3.0 2.0 82 85
- 0.4075 3 2 cbr 210 ------- 2 3.0 2.0 82 85
r 0.408668 3 2 cbr 210 ------- 2 3.0 2.0 82 85
+ 0.41125 3 2 cbr 210 ------- 2 3.0 2.0 83 86
- 0.41125 3 2 cbr 210 ------- 2 3.0 2.0 83 86
r 0.412418 3 2 cbr 210 ------- 2 3.0 2.0 83 86
+ 0.415 3 2 cbr 210 ------- 2 3.0 2.0 84 87
- 0.415 3 2 cbr 210 ------- 2 3.0 2.0 84 87
r 0.416168 3 2 cbr 210 ------- 2 3.0 2.0 84 87
+ 0.41875 3 2 cbr 210 ------- 2 3.0 2.0 85 88
- 0.41875 3 2 cbr 210 ------- 2 3.0 2.0 85 88
r 0.419918 3 2 cbr 210 ------- 2 3.0 2.0 85 88
+ 0.4225 3 2 cbr 210 ------- 2 3.0 2.0 86 89
- 0.4225 3 2 cbr 210 ------- 2 3.0 2.0 86 89
r 0.423668 3 2 cbr 210 ------- 2 3.0 2.0 86 89
+ 0.42625 3 2 cbr 210 ------- 2 3.0 2.0 87 90
- 0.42625 3 2 cbr 210 ------- 2 3.0 2.0 87 90
r 0.427418 3 2 cbr 210 ------- 2 3.0 2.0 87 90
+ 0.43 3 2 cbr 210 ------- 2 3.0 2.0 88 91
- 0.43 3 2 cbr 210 ------- 2 3.0 2.0 88 91
r 0.431168 3 2 cbr 210 ------- 2 3.0 2.0 88 91
+ 0.43375 3 2 cbr 210 ------- 2 3.0 2.0 89 92
- 0.43375 3 2 cbr 210 ------- 2 3.0 2.0 89 92
r 0.434918 3 2 cbr 210 ------- 2 3.0 2.0 89 92
+ 0.4375 3 2 cbr 210 ------- 2 3.0 2.0 90 93
- 0.4375 3 2 cbr 210 ------- 2 3.0 2.0 90 93
r 0.438668 3 2 cbr 210 ------- 2 3.0 2.0 90 93
+ 0.44125 3 2 cbr 210 ------- 2 3.0 2.0 91 94
- 0.44125 3 2 cbr 210 ------- 2 3.0 2.0 91 94
r 0.442418 3 2 cbr 210 ------- 2 3.0 2.0 91 94
+ 0.445 3 2 cbr 210 ------- 2 3.0 2.0 92 95
- 0.445 3 2 cbr 210 ------- 2 3.0 2.0 92 95
r 0.446168 3 2 cbr 210 ------- 2 3.0 2.0 92 95
+ 0.44875 3 2 cbr 210 ------- 2 3.0 2.0 93 96
- 0.44875 3 2 cbr 210 ------- 2 3.0 2.0 93 96
r 0.449918 3 2 cbr 210 ------- 2 3.0 2.0 93 96
+ 0.4525 3 2 cbr 210 ------- 2 3.0 2.0 94 97
- 0.4525 3 2 cbr 210 ------- 2 3.0 2.0 94 97
r 0.453668 3 2 cbr 210 ------- 2 3.0 2.0 94 97
+ 0.45625 3 2 cbr 210 ------- 2 3.0 2.0 95 98
- 0.45625 3 2 cbr 210 ------- 2 3.0 2.0 95 98
r 0.457418 3 2 cbr 210 ------- 2 3.0 2.0 95 98
+ 0.46 3 2 cbr 210 ------- 2 3.0 2.0 96 99
- 0.46 3 2 cbr 210 ------- 2 3.0 2.0 96 99
r 0.461168 3 2 cbr 210 ------- 2 3.0 2.0 96 99
+ 0.46375 3 2 cbr 210 ------- 2 3.0 2.0 97 100
- 0.46375 3 2 cbr 210 ------- 2 3.0 2.0 97 100
r 0.464918 3 2 cbr 210 ------- 2 3.0 2.0 97 100
+ 0.4675 3 2 cbr 210 ------- 2 3.0 2.0 98 101
- 0.4675 3 2 cbr 210 ------- 2 3.0 2.0 98 101
r 0.468668 3 2 cbr 210 ------- 2 3.0 2.0 98 101
+ 0.47125 3 2 cbr 210 ------- 2 3.0 2.0 99 102
- 0.47125 3 2 cbr 210 ------- 2 3.0 2.0 99 102
r 0.472418 3 2 cbr 210 ------- 2 3.0 2.0 99 102
+ 0.475 3 2 cbr 210 ------- 2 3.0 2.0 100 103
- 0.475 3 2 cbr 210 ------- 2 3.0 2.0 100 103
r 0.476168 3 2 cbr 210 ------- 2 3.0 2.0 100 103
+ 0.47875 3 2 cbr 210 ------- 2 3.0 2.0 101 104
- 0.47875 3 2 cbr 210 ------- 2 3.0 2.0 101 104
r 0.479918 3 2 cbr 210 ------- 2 3.0 2.0 101 104
+ 0.4825 3 2 cbr 210 ------- 2 3.0 2.0 102 105
- 0.4825 3 2 cbr 210 ------- 2 3.0 2.0 102 105
r 0.483668 3 2 cbr 210 ------- 2 3.0 2.0 102 105
+ 0.48625 3 2 cbr 210 ------- 2 3.0 2.0 103 106
- 0.48625 3 2 cbr 210 ------- 2 3.0 2.0 103 106
r 0.487418 3 2 cbr 210 ------- 2 3.0 2.0 103 106
+ 0.49 3 2 cbr 210 ------- 2 3.0 2.0 104 107
- 0.49 3 2 cbr 210 ------- 2 3.0 2.0 104 107
r 0.491168 3 2 cbr 210 ------- 2 3.0 2.0 104 107
+ 0.49375 3 2 cbr 210 ------- 2 3.0 2.0 105 108
- 0.49375 3 2 cbr 210 ------- 2 3.0 2.0 105 108
r 0.494918 3 2 cbr 210 ------- 2 3.0 2.0 105 108
+ 0.4975 3 2 cbr 210 ------- 2 3.0 2.0 106 109
- 0.4975 3 2 cbr 210 ------- 2 3.0 2.0 106 109
r 0.498668 3 2 cbr 210 ------- 2 3.0 2.0 106 109
+ 0.50125 3 2 cbr 210 ------- 2 3.0 2.0 107 110
- 0.50125 3 2 cbr 210 ------- 2 3.0 2.0 107 110
r 0.502418 3 2 cbr 210 ------- 2 3.0 2.0 107 110
+ 0.505 3 2 cbr 210 ------- 2 3.0 2.0 108 111
- 0.505 3 2 cbr 210 ------- 2 3.0 2.0 108 111
r 0.506168 3 2 cbr 210 ------- 2 3.0 2.0 108 111
+ 0.50875 3 2 cbr 210 ------- 2 3.0 2.0 109 112
- 0.50875 3 2 cbr 210 ------- 2 3.0 2.0 109 112
r 0.509918 3 2 cbr 210 ------- 2 3.0 2.0 109 112
+ 0.5125 3 2 cbr 210 ------- 2 3.0 2.0 110 113
- 0.5125 3 2 cbr 210 ------- 2 3.0 2.0 110 113
r 0.513668 3 2 cbr 210 ------- 2 3.0 2.0 110 113
+ 0.51625 3 2 cbr 210 ------- 2 3.0 2.0 111 114
- 0.51625 3 2 cbr 210 ------- 2 3.0 2.0 111 114
r 0.517418 3 2 cbr 210 ------- 2 3.0 2.0 111 114
+ 0.52 3 2 cbr 210 ------- 2 3.0 2.0 112 115
- 0.52 3 2 cbr 210 ------- 2 3.0 2.0 112 115
r 0.521168 3 2 cbr 210 ------- 2 3.0 2.0 112 115
+ 0.52375 3 2 cbr 210 ------- 2 3.0 2.0 113 116
- 0.52375 3 2 cbr 210 ------- 2 3.0 2.0 113 116
r 0.524918 3 2 cbr 210 ------- 2 3.0 2.0 113 116
+ 0.5275 3 2 cbr 210 ------- 2 3.0 2.0 114 117
- 0.5275 3 2 cbr 210 ------- 2 3.0 2.0 114 117
r 0.528668 3 2 cbr 210 ------- 2 3.0 2.0 114 117
+ 0.53125 3 2 cbr 210 ------- 2 3.0 2.0 115 118
- 0.53125 3 2 cbr 210 ------- 2 3.0 2.0 115 118
r 0.532418 3 2 cbr 210 ------- 2 3.0 2.0 115 118
+ 0.535 3 2 cbr 210 ------- 2 3.0 2.0 116 119
- 0.535 3 2 cbr 210 ------- 2 3.0 2.0 116 119
r 0.536168 3 2 cbr 210 ------- 2 3.0 2.0 116 119
+ 0.53875 3 2 cbr 210 ------- 2 3.0 2.0 117 120
- 0.53875 3 2 cbr 210 ------- 2 3.0 2.0 117 120
r 0.539918 3 2 cbr 210 ------- 2 3.0 2.0 117 120
+ 0.5425 3 2 cbr 210 ------- 2 3.0 2.0 118 121
- 0.5425 3 2 cbr 210 ------- 2 3.0 2.0 118 121
r 0.543668 3 2 cbr 210 ------- 2 3.0 2.0 118 121
+ 0.54625 3 2 cbr 210 ------- 2 3.0 2.0 119 122
- 0.54625 3 2 cbr 210 ------- 2 3.0 2.0 119 122
r 0.547418 3 2 cbr 210 ------- 2 3.0 2.0 119 122
+ 0.55 3 2 cbr 210 ------- 2 3.0 2.0 120 123
- 0.55 3 2 cbr 210 ------- 2 3.0 2.0 120 123
r 0.551168 3 2 cbr 210 ------- 2 3.0 2.0 120 123
+ 0.55375 3 2 cbr 210 ------- 2 3.0 2.0 121 124
- 0.55375 3 2 cbr 210 ------- 2 3.0 2.0 121 124
r 0.554918 3 2 cbr 210 ------- 2 3.0 2.0 121 124
+ 0.5575 3 2 cbr 210 ------- 2 3.0 2.0 122 125
- 0.5575 3 2 cbr 210 ------- 2 3.0 2.0 122 125
r 0.558668 3 2 cbr 210 ------- 2 3.0 2.0 122 125
+ 0.56125 3 2 cbr 210 ------- 2 3.0 2.0 123 126
- 0.56125 3 2 cbr 210 ------- 2 3.0 2.0 123 126
r 0.562418 3 2 cbr 210 ------- 2 3.0 2.0 123 126
+ 0.565 3 2 cbr 210 ------- 2 3.0 2.0 124 127
- 0.565 3 2 cbr 210 ------- 2 3.0 2.0 124 127
r 0.566168 3 2 cbr 210 ------- 2 3.0 2.0 124 127
+ 0.56875 3 2 cbr 210 ------- 2 3.0 2.0 125 128
- 0.56875 3 2 cbr 210 ------- 2 3.0 2.0 125 128
r 0.569918 3 2 cbr 210 ------- 2 3.0 2.0 125 128
+ 0.5725 3 2 cbr 210 ------- 2 3.0 2.0 126 129
- 0.5725 3 2 cbr 210 ------- 2 3.0 2.0 126 129
r 0.573668 3 2 cbr 210 ------- 2 3.0 2.0 126 129
+ 0.57625 3 2 cbr 210 ------- 2 3.0 2.0 127 130
- 0.57625 3 2 cbr 210 ------- 2 3.0 2.0 127 130
r 0.577418 3 2 cbr 210 ------- 2 3.0 2.0 127 130
+ 0.58 3 2 cbr 210 ------- 2 3.0 2.0 128 131
- 0.58 3 2 cbr 210 ------- 2 3.0 2.0 128 131
r 0.581168 3 2 cbr 210 ------- 2 3.0 2.0 128 131
+ 0.58375 3 2 cbr 210 ------- 2 3.0 2.0 129 132
- 0.58375 3 2 cbr 210 ------- 2 3.0 2.0 129 132
r 0.584918 3 2 cbr 210 ------- 2 3.0 2.0 129 132
+ 0.5875 3 2 cbr 210 ------- 2 3.0 2.0 130 133
- 0.5875 3 2 cbr 210 ------- 2 3.0 2.0 130 133
r 0.588668 3 2 cbr 210 ------- 2 3.0 2.0 130 133
+ 0.59125 3 2 cbr 210 ------- 2 3.0 2.0 131 134
- 0.59125 3 2 cbr 210 ------- 2 3.0 2.0 131 134
r 0.592418 3 2 cbr 210 ------- 2 3.0 2.0 131 134
+ 0.595 3 2 cbr 210 ------- 2 3.0 2.0 132 135
- 0.595 3 2 cbr 210 ------- 2 3.0 2.0 132 135
r 0.596168 3 2 cbr 210 ------- 2 3.0 2.0 132 135
+ 0.59875 3 2 cbr 210 ------- 2 3.0 2.0 133 136
- 0.59875 3 2 cbr 210 ------- 2 3.0 2.0 133 136
r 0.599918 3 2 cbr 210 ------- 2 3.0 2.0 133 136
+ 0.6025 3 2 cbr 210 ------- 2 3.0 2.0 134 137
- 0.6025 3 2 cbr 210 ------- 2 3.0 2.0 134 137
r 0.603668 3 2 cbr 210 ------- 2 3.0 2.0 134 137
+ 0.60625 3 2 cbr 210 ------- 2 3.0 2.0 135 138
- 0.60625 3 2 cbr 210 ------- 2 3.0 2.0 135 138
r 0.607418 3 2 cbr 210 ------- 2 3.0 2.0 135 138
+ 0.61 3 2 cbr 210 ------- 2 3.0 2.0 136 139
- 0.61 3 2 cbr 210 ------- 2 3.0 2.0 136 139
r 0.611168 3 2 cbr 210 ------- 2 3.0 2.0 136 139
+ 0.61375 3 2 cbr 210 ------- 2 3.0 2.0 137 140
- 0.61375 3 2 cbr 210 ------- 2 3.0 2.0 137 140
r 0.614918 3 2 cbr 210 ------- 2 3.0 2.0 137 140
+ 0.6175 3 2 cbr 210 ------- 2 3.0 2.0 138 141
- 0.6175 3 2 cbr 210 ------- 2 3.0 2.0 138 141
r 0.618668 3 2 cbr 210 ------- 2 3.0 2.0 138 141
+ 0.62125 3 2 cbr 210 ------- 2 3.0 2.0 139 142
- 0.62125 3 2 cbr 210 ------- 2 3.0 2.0 139 142
r 0.622418 3 2 cbr 210 ------- 2 3.0 2.0 139 142
+ 0.625 3 2 cbr 210 ------- 2 3.0 2.0 140 143
- 0.625 3 2 cbr 210 ------- 2 3.0 2.0 140 143
r 0.626168 3 2 cbr 210 ------- 2 3.0 2.0 140 143
+ 0.62875 3 2 cbr 210 ------- 2 3.0 2.0 141 144
- 0.62875 3 2 cbr 210 ------- 2 3.0 2.0 141 144
r 0.629918 3 2 cbr 210 ------- 2 3.0 2.0 141 144
+ 0.6325 3 2 cbr 210 ------- 2 3.0 2.0 142 145
- 0.6325 3 2 cbr 210 ------- 2 3.0 2.0 142 145
r 0.633668 3 2 cbr 210 ------- 2 3.0 2.0 142 145
+ 0.63625 3 2 cbr 210 ------- 2 3.0 2.0 143 146
- 0.63625 3 2 cbr 210 ------- 2 3.0 2.0 143 146
r 0.637418 3 2 cbr 210 ------- 2 3.0 2.0 143 146
+ 0.64 3 2 cbr 210 ------- 2 3.0 2.0 144 147
- 0.64 3 2 cbr 210 ------- 2 3.0 2.0 144 147
r 0.641168 3 2 cbr 210 ------- 2 3.0 2.0 144 147
+ 0.64375 3 2 cbr 210 ------- 2 3.0 2.0 145 148
- 0.64375 3 2 cbr 210 ------- 2 3.0 2.0 145 148
r 0.644918 3 2 cbr 210 ------- 2 3.0 2.0 145 148
+ 0.6475 3 2 cbr 210 ------- 2 3.0 2.0 146 149
- 0.6475 3 2 cbr 210 ------- 2 3.0 2.0 146 149
r 0.648668 3 2 cbr 210 ------- 2 3.0 2.0 146 149
+ 0.65125 3 2 cbr 210 ------- 2 3.0 2.0 147 150
- 0.65125 3 2 cbr 210 ------- 2 3.0 2.0 147 150
r 0.652418 3 2 cbr 210 ------- 2 3.0 2.0 147 150
+ 0.655 3 2 cbr 210 ------- 2 3.0 2.0 148 151
- 0.655 3 2 cbr 210 ------- 2 3.0 2.0 148 151
r 0.656168 3 2 cbr 210 ------- 2 3.0 2.0 148 151
+ 0.65875 3 2 cbr 210 ------- 2 3.0 2.0 149 152
- 0.65875 3 2 cbr 210 ------- 2 3.0 2.0 149 152
r 0.659918 3 2 cbr 210 ------- 2 3.0 2.0 149 152
+ 0.6625 3 2 cbr 210 ------- 2 3.0 2.0 150 153
- 0.6625 3 2 cbr 210 ------- 2 3.0 2.0 150 153
r 0.663668 3 2 cbr 210 ------- 2 3.0 2.0 150 153
+ 0.66625 3 2 cbr 210 ------- 2 3.0 2.0 151 154
- 0.66625 3 2 cbr 210 ------- 2 3.0 2.0 151 154
r 0.667418 3 2 cbr 210 ------- 2 3.0 2.0 151 154
+ 0.67 3 2 cbr 210 ------- 2 3.0 2.0 152 155
- 0.67 3 2 cbr 210 ------- 2 3.0 2.0 152 155
r 0.671168 3 2 cbr 210 ------- 2 3.0 2.0 152 155
+ 0.67375 3 2 cbr 210 ------- 2 3.0 2.0 153 156
- 0.67375 3 2 cbr 210 ------- 2 3.0 2.0 153 156
r 0.674918 3 2 cbr 210 ------- 2 3.0 2.0 153 156
+ 0.6775 3 2 cbr 210 ------- 2 3.0 2.0 154 157
- 0.6775 3 2 cbr 210 ------- 2 3.0 2.0 154 157
r 0.678668 3 2 cbr 210 ------- 2 3.0 2.0 154 157
+ 0.68125 3 2 cbr 210 ------- 2 3.0 2.0 155 158
- 0.68125 3 2 cbr 210 ------- 2 3.0 2.0 155 158
r 0.682418 3 2 cbr 210 ------- 2 3.0 2.0 155 158
+ 0.685 3 2 cbr 210 ------- 2 3.0 2.0 156 159
- 0.685 3 2 cbr 210 ------- 2 3.0 2.0 156 159
r 0.686168 3 2 cbr 210 ------- 2 3.0 2.0 156 159
+ 0.68875 3 2 cbr 210 ------- 2 3.0 2.0 157 160
- 0.68875 3 2 cbr 210 ------- 2 3.0 2.0 157 160
r 0.689918 3 2 cbr 210 ------- 2 3.0 2.0 157 160
+ 0.6925 3 2 cbr 210 ------- 2 3.0 2.0 158 161
- 0.6925 3 2 cbr 210 ------- 2 3.0 2.0 158 161
r 0.693668 3 2 cbr 210 ------- 2 3.0 2.0 158 161
+ 0.69625 3 2 cbr 210 ------- 2 3.0 2.0 159 162
- 0.69625 3 2 cbr 210 ------- 2 3.0 2.0 159 162
r 0.697418 3 2 cbr 210 ------- 2 3.0 2.0 159 162
+ 0.7 3 2 cbr 210 ------- 2 3.0 2.0 160 163
- 0.7 3 2 cbr 210 ------- 2 3.0 2.0 160 163
r 0.701168 3 2 cbr 210 ------- 2 3.0 2.0 160 163
+ 0.70375 3 2 cbr 210 ------- 2 3.0 2.0 161 164
- 0.70375 3 2 cbr 210 ------- 2 3.0 2.0 161 164
r 0.704918 3 2 cbr 210 ------- 2 3.0 2.0 161 164
+ 0.7075 3 2 cbr 210 ------- 2 3.0 2.0 162 165
- 0.7075 3 2 cbr 210 ------- 2 3.0 2.0 162 165
r 0.708668 3 2 cbr 210 ------- 2 3.0 2.0 162 165
+ 0.71125 3 2 cbr 210 ------- 2 3.0 2.0 163 166
- 0.71125 3 2 cbr 210 ------- 2 3.0 2.0 163 166
r 0.712418 3 2 cbr 210 ------- 2 3.0 2.0 163 166
+ 0.715 3 2 cbr 210 ------- 2 3.0 2.0 164 167
- 0.715 3 2 cbr 210 ------- 2 3.0 2.0 164 167
r 0.716168 3 2 cbr 210 ------- 2 3.0 2.0 164 167
+ 0.71875 3 2 cbr 210 ------- 2 3.0 2.0 165 168
- 0.71875 3 2 cbr 210 ------- 2 3.0 2.0 165 168
r 0.719918 3 2 cbr 210 ------- 2 3.0 2.0 165 168
+ 0.7225 3 2 cbr 210 ------- 2 3.0 2.0 166 169
- 0.7225 3 2 cbr 210 ------- 2 3.0 2.0 166 169
r 0.723668 3 2 cbr 210 ------- 2 3.0 2.0 166 169
+ 0.72625 3 2 cbr 210 ------- 2 3.0 2.0 167 170
- 0.72625 3 2 cbr 210 ------- 2 3.0 2.0 167 170
r 0.727418 3 2 cbr 210 ------- 2 3.0 2.0 167 170
+ 0.73 3 2 cbr 210 ------- 2 3.0 2.0 168 171
- 0.73 3 2 cbr 210 ------- 2 3.0 2.0 168 171
r 0.731168 3 2 cbr 210 ------- 2 3.0 2.0 168 171
+ 0.73375 3 2 cbr 210 ------- 2 3.0 2.0 169 172
- 0.73375 3 2 cbr 210 ------- 2 3.0 2.0 169 172
r 0.734918 3 2 cbr 210 ------- 2 3.0 2.0 169 172
+ 0.7375 3 2 cbr 210 ------- 2 3.0 2.0 170 173
- 0.7375 3 2 cbr 210 ------- 2 3.0 2.0 170 173
r 0.738668 3 2 cbr 210 ------- 2 3.0 2.0 170 173
+ 0.74125 3 2 cbr 210 ------- 2 3.0 2.0 171 174
- 0.74125 3 2 cbr 210 ------- 2 3.0 2.0 171 174
r 0.742418 3 2 cbr 210 ------- 2 3.0 2.0 171 174
+ 0.745 3 2 cbr 210 ------- 2 3.0 2.0 172 175
- 0.745 3 2 cbr 210 ------- 2 3.0 2.0 172 175
r 0.746168 3 2 cbr 210 ------- 2 3.0 2.0 172 175
+ 0.74875 3 2 cbr 210 ------- 2 3.0 2.0 173 176
- 0.74875 3 2 cbr 210 ------- 2 3.0 2.0 173 176
r 0.749918 3 2 cbr 210 ------- 2 3.0 2.0 173 176
+ 0.7525 3 2 cbr 210 ------- 2 3.0 2.0 174 177
- 0.7525 3 2 cbr 210 ------- 2 3.0 2.0 174 177
r 0.753668 3 2 cbr 210 ------- 2 3.0 2.0 174 177
+ 0.75625 3 2 cbr 210 ------- 2 3.0 2.0 175 178
- 0.75625 3 2 cbr 210 ------- 2 3.0 2.0 175 178
r 0.757418 3 2 cbr 210 ------- 2 3.0 2.0 175 178
+ 0.76 3 2 cbr 210 ------- 2 3.0 2.0 176 179
- 0.76 3 2 cbr 210 ------- 2 3.0 2.0 176 179
r 0.761168 3 2 cbr 210 ------- 2 3.0 2.0 176 179
+ 0.76375 3 2 cbr 210 ------- 2 3.0 2.0 177 180
- 0.76375 3 2 cbr 210 ------- 2 3.0 2.0 177 180
r 0.764918 3 2 cbr 210 ------- 2 3.0 2.0 177 180
+ 0.7675 3 2 cbr 210 ------- 2 3.0 2.0 178 181
- 0.7675 3 2 cbr 210 ------- 2 3.0 2.0 178 181
r 0.768668 3 2 cbr 210 ------- 2 3.0 2.0 178 181
+ 0.77125 3 2 cbr 210 ------- 2 3.0 2.0 179 182
- 0.77125 3 2 cbr 210 ------- 2 3.0 2.0 179 182
r 0.772418 3 2 cbr 210 ------- 2 3.0 2.0 179 182
+ 0.775 3 2 cbr 210 ------- 2 3.0 2.0 180 183
- 0.775 3 2 cbr 210 ------- 2 3.0 2.0 180 183
r 0.776168 3 2 cbr 210 ------- 2 3.0 2.0 180 183
+ 0.77875 3 2 cbr 210 ------- 2 3.0 2.0 181 184
- 0.77875 3 2 cbr 210 ------- 2 3.0 2.0 181 184
r 0.779918 3 2 cbr 210 ------- 2 3.0 2.0 181 184
+ 0.7825 3 2 cbr 210 ------- 2 3.0 2.0 182 185
- 0.7825 3 2 cbr 210 ------- 2 3.0 2.0 182 185
r 0.783668 3 2 cbr 210 ------- 2 3.0 2.0 182 185
+ 0.78625 3 2 cbr 210 ------- 2 3.0 2.0 183 186
- 0.78625 3 2 cbr 210 ------- 2 3.0 2.0 183 186
r 0.787418 3 2 cbr 210 ------- 2 3.0 2.0 183 186
+ 0.79 3 2 cbr 210 ------- 2 3.0 2.0 184 187
- 0.79 3 2 cbr 210 ------- 2 3.0 2.0 184 187
r 0.791168 3 2 cbr 210 ------- 2 3.0 2.0 184 187
+ 0.79375 3 2 cbr 210 ------- 2 3.0 2.0 185 188
- 0.79375 3 2 cbr 210 ------- 2 3.0 2.0 185 188
r 0.794918 3 2 cbr 210 ------- 2 3.0 2.0 185 188
+ 0.7975 3 2 cbr 210 ------- 2 3.0 2.0 186 189
- 0.7975 3 2 cbr 210 ------- 2 3.0 2.0 186 189
r 0.798668 3 2 cbr 210 ------- 2 3.0 2.0 186 189
+ 0.80125 3 2 cbr 210 ------- 2 3.0 2.0 187 190
- 0.80125 3 2 cbr 210 ------- 2 3.0 2.0 187 190
r 0.802418 3 2 cbr 210 ------- 2 3.0 2.0 187 190
+ 0.805 3 2 cbr 210 ------- 2 3.0 2.0 188 191
- 0.805 3 2 cbr 210 ------- 2 3.0 2.0 188 191
r 0.806168 3 2 cbr 210 ------- 2 3.0 2.0 188 191
+ 0.80875 3 2 cbr 210 ------- 2 3.0 2.0 189 192
- 0.80875 3 2 cbr 210 ------- 2 3.0 2.0 189 192
r 0.809918 3 2 cbr 210 ------- 2 3.0 2.0 189 192
+ 0.8125 3 2 cbr 210 ------- 2 3.0 2.0 190 193
- 0.8125 3 2 cbr 210 ------- 2 3.0 2.0 190 193
r 0.813668 3 2 cbr 210 ------- 2 3.0 2.0 190 193
+ 0.81625 3 2 cbr 210 ------- 2 3.0 2.0 191 194
- 0.81625 3 2 cbr 210 ------- 2 3.0 2.0 191 194
r 0.817418 3 2 cbr 210 ------- 2 3.0 2.0 191 194
+ 0.82 3 2 cbr 210 ------- 2 3.0 2.0 192 195
- 0.82 3 2 cbr 210 ------- 2 3.0 2.0 192 195
r 0.821168 3 2 cbr 210 ------- 2 3.0 2.0 192 195
+ 0.82375 3 2 cbr 210 ------- 2 3.0 2.0 193 196
- 0.82375 3 2 cbr 210 ------- 2 3.0 2.0 193 196
r 0.824918 3 2 cbr 210 ------- 2 3.0 2.0 193 196
+ 0.8275 3 2 cbr 210 ------- 2 3.0 2.0 194 197
- 0.8275 3 2 cbr 210 ------- 2 3.0 2.0 194 197
r 0.828668 3 2 cbr 210 ------- 2 3.0 2.0 194 197
+ 0.83125 3 2 cbr 210 ------- 2 3.0 2.0 195 198
- 0.83125 3 2 cbr 210 ------- 2 3.0 2.0 195 198
r 0.832418 3 2 cbr 210 ------- 2 3.0 2.0 195 198
+ 0.835 3 2 cbr 210 ------- 2 3.0 2.0 196 199
- 0.835 3 2 cbr 210 ------- 2 3.0 2.0 196 199
r 0.836168 3 2 cbr 210 ------- 2 3.0 2.0 196 199
+ 0.83875 3 2 cbr 210 ------- 2 3.0 2.0 197 200
- 0.83875 3 2 cbr 210 ------- 2 3.0 2.0 197 200
r 0.839918 3 2 cbr 210 ------- 2 3.0 2.0 197 200
+ 0.8425 3 2 cbr 210 ------- 2 3.0 2.0 198 201
- 0.8425 3 2 cbr 210 ------- 2 3.0 2.0 198 201
r 0.843668 3 2 cbr 210 ------- 2 3.0 2.0 198 201
+ 0.84625 3 2 cbr 210 ------- 2 3.0 2.0 199 202
- 0.84625 3 2 cbr 210 ------- 2 3.0 2.0 199 202
r 0.847418 3 2 cbr 210 ------- 2 3.0 2.0 199 202
+ 0.85 3 2 cbr 210 ------- 2 3.0 2.0 200 203
- 0.85 3 2 cbr 210 ------- 2 3.0 2.0 200 203
r 0.851168 3 2 cbr 210 ------- 2 3.0 2.0 200 203
+ 0.85375 3 2 cbr 210 ------- 2 3.0 2.0 201 204
- 0.85375 3 2 cbr 210 ------- 2 3.0 2.0 201 204
r 0.854918 3 2 cbr 210 ------- 2 3.0 2.0 201 204
+ 0.8575 3 2 cbr 210 ------- 2 3.0 2.0 202 205
- 0.8575 3 2 cbr 210 ------- 2 3.0 2.0 202 205
r 0.858668 3 2 cbr 210 ------- 2 3.0 2.0 202 205
+ 0.86125 3 2 cbr 210 ------- 2 3.0 2.0 203 206
- 0.86125 3 2 cbr 210 ------- 2 3.0 2.0 203 206
r 0.862418 3 2 cbr 210 ------- 2 3.0 2.0 203 206
+ 0.865 3 2 cbr 210 ------- 2 3.0 2.0 204 207
- 0.865 3 2 cbr 210 ------- 2 3.0 2.0 204 207
r 0.866168 3 2 cbr 210 ------- 2 3.0 2.0 204 207
+ 0.86875 3 2 cbr 210 ------- 2 3.0 2.0 205 208
- 0.86875 3 2 cbr 210 ------- 2 3.0 2.0 205 208
r 0.869918 3 2 cbr 210 ------- 2 3.0 2.0 205 208
+ 0.8725 3 2 cbr 210 ------- 2 3.0 2.0 206 209
- 0.8725 3 2 cbr 210 ------- 2 3.0 2.0 206 209
r 0.873668 3 2 cbr 210 ------- 2 3.0 2.0 206 209
+ 0.87625 3 2 cbr 210 ------- 2 3.0 2.0 207 210
- 0.87625 3 2 cbr 210 ------- 2 3.0 2.0 207 210
r 0.877418 3 2 cbr 210 ------- 2 3.0 2.0 207 210
+ 0.88 3 2 cbr 210 ------- 2 3.0 2.0 208 211
- 0.88 3 2 cbr 210 ------- 2 3.0 2.0 208 211
r 0.881168 3 2 cbr 210 ------- 2 3.0 2.0 208 211
+ 0.88375 3 2 cbr 210 ------- 2 3.0 2.0 209 212
- 0.88375 3 2 cbr 210 ------- 2 3.0 2.0 209 212
r 0.884918 3 2 cbr 210 ------- 2 3.0 2.0 209 212
+ 0.8875 3 2 cbr 210 ------- 2 3.0 2.0 210 213
- 0.8875 3 2 cbr 210 ------- 2 3.0 2.0 210 213
r 0.888668 3 2 cbr 210 ------- 2 3.0 2.0 210 213
+ 0.89125 3 2 cbr 210 ------- 2 3.0 2.0 211 214
- 0.89125 3 2 cbr 210 ------- 2 3.0 2.0 211 214