+ 0.2 0 1 tcp 40 ------- 1 0.0 1.0 0 0
- 0.2 0 1 tcp 40 ------- 1 0.0 1.0 0 0
r 0.201032 0 1 tcp 40 ------- 1 0.0 1.0 0 0
+ 0.201032 1 0 ack 40 ------- 1 1.0 0.0 0 1
- 0.201032 1 0 ack 40 ------- 1 1.0 0.0 0 1
r 0.202064 1 0 ack 40 ------- 1 1.0 0.0 0 1
+ 0.202064 0 1 tcp 1040 ------- 1 0.0 1.0 1 2
- 0.202064 0 1 tcp 1040 ------- 1 0.0 1.0 1 2
+ 0.202064 0 1 tcp 1040 ------- 1 0.0 1.0 2 3
- 0.202896 0 1 tcp 1040 ------- 1 0.0 1.0 2 3
r 0.203896 0 1 tcp 1040 ------- 1 0.0 1.0 1 2
+ 0.203896 1 0 ack 40 ------- 1 1.0 0.0 1 4
- 0.203896 1 0 ack 40 ------- 1 1.0 0.0 1 4
r 0.204728 0 1 tcp 1040 ------- 1 0.0 1.0 2 3
+ 0.204728 1 0 ack 40 ------- 1 1.0 0.0 2 5
- 0.204728 1 0 ack 40 ------- 1 1.0 0.0 2 5
r 0.204928 1 0 ack 40 ------- 1 1.0 0.0 1 4
+ 0.204928 0 1 tcp 1040 ------- 1 0.0 1.0 3 6
- 0.204928 0 1 tcp 1040 ------- 1 0.0 1.0 3 6
+ 0.204928 0 1 tcp 1040 ------- 1 0.0 1.0 4 7
r 0.20576 1 0 ack 40 ------- 1 1.0 0.0 2 5
+ 0.20576 0 1 tcp 1040 ------- 1 0.0 1.0 5 8
+ 0.20576 0 1 tcp 1040 ------- 1 0.0 1.0 6 9
- 0.20576 0 1 tcp 1040 ------- 1 0.0 1.0 4 7
- 0.206592 0 1 tcp 1040 ------- 1 0.0 1.0 5 8
r 0.20676 0 1 tcp 1040 ------- 1 0.0 1.0 3 6
+ 0.20676 1 0 ack 40 ------- 1 1.0 0.0 3 10
- 0.20676 1 0 ack 40 ------- 1 1.0 0.0 3 10
- 0.207424 0 1 tcp 1040 ------- 1 0.0 1.0 6 9
r 0.207592 0 1 tcp 1040 ------- 1 0.0 1.0 4 7
+ 0.207592 1 0 ack 40 ------- 1 1.0 0.0 4 11
- 0.207592 1 0 ack 40 ------- 1 1.0 0.0 4 11
r 0.207792 1 0 ack 40 ------- 1 1.0 0.0 3 10
+ 0.207792 0 1 tcp 1040 ------- 1 0.0 1.0 7 12
+ 0.207792 0 1 tcp 1040 ------- 1 0.0 1.0 8 13
- 0.208256 0 1 tcp 1040 ------- 1 0.0 1.0 7 12
r 0.208424 0 1 tcp 1040 ------- 1 0.0 1.0 5 8
+ 0.208424 1 0 ack 40 ------- 1 1.0 0.0 5 14
- 0.208424 1 0 ack 40 ------- 1 1.0 0.0 5 14
r 0.208624 1 0 ack 40 ------- 1 1.0 0.0 4 11
+ 0.208624 0 1 tcp 1040 ------- 1 0.0 1.0 9 15
+ 0.208624 0 1 tcp 1040 ------- 1 0.0 1.0 10 16
- 0.209088 0 1 tcp 1040 ------- 1 0.0 1.0 8 13
r 0.209256 0 1 tcp 1040 ------- 1 0.0 1.0 6 9
+ 0.209256 1 0 ack 40 ------- 1 1.0 0.0 6 17
- 0.209256 1 0 ack 40 ------- 1 1.0 0.0 6 17
r 0.209456 1 0 ack 40 ------- 1 1.0 0.0 5 14
+ 0.209456 0 1 tcp 1040 ------- 1 0.0 1.0 11 18
+ 0.209456 0 1 tcp 1040 ------- 1 0.0 1.0 12 19
- 0.20992 0 1 tcp 1040 ------- 1 0.0 1.0 9 15
r 0.210088 0 1 tcp 1040 ------- 1 0.0 1.0 7 12
+ 0.210088 1 0 ack 40 ------- 1 1.0 0.0 7 20
- 0.210088 1 0 ack 40 ------- 1 1.0 0.0 7 20
r 0.210288 1 0 ack 40 ------- 1 1.0 0.0 6 17
+ 0.210288 0 1 tcp 1040 ------- 1 0.0 1.0 13 21
+ 0.210288 0 1 tcp 1040 ------- 1 0.0 1.0 14 22
- 0.210752 0 1 tcp 1040 ------- 1 0.0 1.0 10 16
r 0.21092 0 1 tcp 1040 ------- 1 0.0 1.0 8 13
+ 0.21092 1 0 ack 40 ------- 1 1.0 0.0 8 23
- 0.21092 1 0 ack 40 ------- 1 1.0 0.0 8 23
r 0.21112 1 0 ack 40 ------- 1 1.0 0.0 7 20
+ 0.21112 0 1 tcp 1040 ------- 1 0.0 1.0 15 24
+ 0.21112 0 1 tcp 1040 ------- 1 0.0 1.0 16 25
- 0.211584 0 1 tcp 1040 ------- 1 0.0 1.0 11 18
r 0.211752 0 1 tcp 1040 ------- 1 0.0 1.0 9 15
+ 0.211752 1 0 ack 40 ------- 1 1.0 0.0 9 26
- 0.211752 1 0 ack 40 ------- 1 1.0 0.0 9 26
r 0.211952 1 0 ack 40 ------- 1 1.0 0.0 8 23
+ 0.211952 0 1 tcp 1040 ------- 1 0.0 1.0 17 27
+ 0.211952 0 1 tcp 1040 ------- 1 0.0 1.0 18 28
- 0.212416 0 1 tcp 1040 ------- 1 0.0 1.0 12 19
r 0.212584 0 1 tcp 1040 ------- 1 0.0 1.0 10 16
+ 0.212584 1 0 ack 40 ------- 1 1.0 0.0 10 29
- 0.212584 1 0 ack 40 ------- 1 1.0 0.0 10 29
r 0.212784 1 0 ack 40 ------- 1 1.0 0.0 9 26
+ 0.212784 0 1 tcp 1040 ------- 1 0.0 1.0 19 30
+ 0.212784 0 1 tcp 1040 ------- 1 0.0 1.0 20 31
- 0.213248 0 1 tcp 1040 ------- 1 0.0 1.0 13 21
r 0.213416 0 1 tcp 1040 ------- 1 0.0 1.0 11 18
+ 0.213416 1 0 ack 40 ------- 1 1.0 0.0 11 32
- 0.213416 1 0 ack 40 ------- 1 1.0 0.0 11 32
r 0.213616 1 0 ack 40 ------- 1 1.0 0.0 10 29
+ 0.213616 0 1 tcp 1040 ------- 1 0.0 1.0 21 33
+ 0.213616 0 1 tcp 1040 ------- 1 0.0 1.0 22 34
- 0.21408 0 1 tcp 1040 ------- 1 0.0 1.0 14 22
r 0.214248 0 1 tcp 1040 ------- 1 0.0 1.0 12 19
+ 0.214248 1 0 ack 40 ------- 1 1.0 0.0 12 35
- 0.214248 1 0 ack 40 ------- 1 1.0 0.0 12 35
r 0.214448 1 0 ack 40 ------- 1 1.0 0.0 11 32
+ 0.214448 0 1 tcp 1040 ------- 1 0.0 1.0 23 36
+ 0.214448 0 1 tcp 1040 ------- 1 0.0 1.0 24 37
- 0.214912 0 1 tcp 1040 ------- 1 0.0 1.0 15 24
r 0.21508 0 1 tcp 1040 ------- 1 0.0 1.0 13 21
+ 0.21508 1 0 ack 40 ------- 1 1.0 0.0 13 38
- 0.21508 1 0 ack 40 ------- 1 1.0 0.0 13 38
r 0.21528 1 0 ack 40 ------- 1 1.0 0.0 12 35
+ 0.21528 0 1 tcp 1040 ------- 1 0.0 1.0 25 39
+ 0.21528 0 1 tcp 1040 ------- 1 0.0 1.0 26 40
- 0.215744 0 1 tcp 1040 ------- 1 0.0 1.0 16 25
r 0.215912 0 1 tcp 1040 ------- 1 0.0 1.0 14 22
+ 0.215912 1 0 ack 40 ------- 1 1.0 0.0 14 41
- 0.215912 1 0 ack 40 ------- 1 1.0 0.0 14 41
r 0.216112 1 0 ack 40 ------- 1 1.0 0.0 13 38
+ 0.216112 0 1 tcp 1040 ------- 1 0.0 1.0 27 42
+ 0.216112 0 1 tcp 1040 ------- 1 0.0 1.0 28 43
- 0.216576 0 1 tcp 1040 ------- 1 0.0 1.0 17 27
r 0.216744 0 1 tcp 1040 ------- 1 0.0 1.0 15 24
+ 0.216744 1 0 ack 40 ------- 1 1.0 0.0 15 44
- 0.216744 1 0 ack 40 ------- 1 1.0 0.0 15 44
r 0.216944 1 0 ack 40 ------- 1 1.0 0.0 14 41
+ 0.216944 0 1 tcp 1040 ------- 1 0.0 1.0 29 45
+ 0.216944 0 1 tcp 1040 ------- 1 0.0 1.0 30 46
- 0.217408 0 1 tcp 1040 ------- 1 0.0 1.0 18 28
r 0.217576 0 1 tcp 1040 ------- 1 0.0 1.0 16 25
+ 0.217576 1 0 ack 40 ------- 1 1.0 0.0 16 47
- 0.217576 1 0 ack 40 ------- 1 1.0 0.0 16 47
r 0.217776 1 0 ack 40 ------- 1 1.0 0.0 15 44
+ 0.217776 0 1 tcp 1040 ------- 1 0.0 1.0 31 48
+ 0.217776 0 1 tcp 1040 ------- 1 0.0 1.0 32 49
- 0.21824 0 1 tcp 1040 ------- 1 0.0 1.0 19 30
r 0.218408 0 1 tcp 1040 ------- 1 0.0 1.0 17 27
+ 0.218408 1 0 ack 40 ------- 1 1.0 0.0 17 50
- 0.218408 1 0 ack 40 ------- 1 1.0 0.0 17 50
r 0.218608 1 0 ack 40 ------- 1 1.0 0.0 16 47
+ 0.218608 0 1 tcp 1040 ------- 1 0.0 1.0 33 51
+ 0.218608 0 1 tcp 1040 ------- 1 0.0 1.0 34 52
- 0.219072 0 1 tcp 1040 ------- 1 0.0 1.0 20 31
r 0.21924 0 1 tcp 1040 ------- 1 0.0 1.0 18 28
+ 0.21924 1 0 ack 40 ------- 1 1.0 0.0 18 53
- 0.21924 1 0 ack 40 ------- 1 1.0 0.0 18 53
r 0.21944 1 0 ack 40 ------- 1 1.0 0.0 17 50
+ 0.21944 0 1 tcp 1040 ------- 1 0.0 1.0 35 54
+ 0.21944 0 1 tcp 1040 ------- 1 0.0 1.0 36 55
- 0.219904 0 1 tcp 1040 ------- 1 0.0 1.0 21 33
r 0.220072 0 1 tcp 1040 ------- 1 0.0 1.0 19 30
+ 0.220072 1 0 ack 40 ------- 1 1.0 0.0 19 56
- 0.220072 1 0 ack 40 ------- 1 1.0 0.0 19 56
r 0.220272 1 0 ack 40 ------- 1 1.0 0.0 18 53
+ 0.220272 0 1 tcp 1040 ------- 1 0.0 1.0 37 57
+ 0.220272 0 1 tcp 1040 ------- 1 0.0 1.0 38 58
- 0.220736 0 1 tcp 1040 ------- 1 0.0 1.0 22 34
r 0.220904 0 1 tcp 1040 ------- 1 0.0 1.0 20 31
+ 0.220904 1 0 ack 40 ------- 1 1.0 0.0 20 59
- 0.220904 1 0 ack 40 ------- 1 1.0 0.0 20 59
r 0.221104 1 0 ack 40 ------- 1 1.0 0.0 19 56
+ 0.221104 0 1 tcp 1040 ------- 1 0.0 1.0 39 60
- 0.221568 0 1 tcp 1040 ------- 1 0.0 1.0 23 36
r 0.221736 0 1 tcp 1040 ------- 1 0.0 1.0 21 33
+ 0.221736 1 0 ack 40 ------- 1 1.0 0.0 21 61
- 0.221736 1 0 ack 40 ------- 1 1.0 0.0 21 61
r 0.221936 1 0 ack 40 ------- 1 1.0 0.0 20 59
+ 0.221936 0 1 tcp 1040 ------- 1 0.0 1.0 40 62
- 0.2224 0 1 tcp 1040 ------- 1 0.0 1.0 24 37
r 0.222568 0 1 tcp 1040 ------- 1 0.0 1.0 22 34
+ 0.222568 1 0 ack 40 ------- 1 1.0 0.0 22 63
- 0.222568 1 0 ack 40 ------- 1 1.0 0.0 22 63
r 0.222768 1 0 ack 40 ------- 1 1.0 0.0 21 61
+ 0.222768 0 1 tcp 1040 ------- 1 0.0 1.0 41 64
- 0.223232 0 1 tcp 1040 ------- 1 0.0 1.0 25 39
r 0.2234 0 1 tcp 1040 ------- 1 0.0 1.0 23 36
+ 0.2234 1 0 ack 40 ------- 1 1.0 0.0 23 65
- 0.2234 1 0 ack 40 ------- 1 1.0 0.0 23 65
r 0.2236 1 0 ack 40 ------- 1 1.0 0.0 22 63
+ 0.2236 0 1 tcp 1040 ------- 1 0.0 1.0 42 66
- 0.224064 0 1 tcp 1040 ------- 1 0.0 1.0 26 40
r 0.224232 0 1 tcp 1040 ------- 1 0.0 1.0 24 37
+ 0.224232 1 0 ack 40 ------- 1 1.0 0.0 24 67
- 0.224232 1 0 ack 40 ------- 1 1.0 0.0 24 67
r 0.224432 1 0 ack 40 ------- 1 1.0 0.0 23 65
+ 0.224432 0 1 tcp 1040 ------- 1 0.0 1.0 43 68
- 0.224896 0 1 tcp 1040 ------- 1 0.0 1.0 27 42
r 0.225064 0 1 tcp 1040 ------- 1 0.0 1.0 25 39
+ 0.225064 1 0 ack 40 ------- 1 1.0 0.0 25 69
- 0.225064 1 0 ack 40 ------- 1 1.0 0.0 25 69
r 0.225264 1 0 ack 40 ------- 1 1.0 0.0 24 67
+ 0.225264 0 1 tcp 1040 ------- 1 0.0 1.0 44 70
- 0.225728 0 1 tcp 1040 ------- 1 0.0 1.0 28 43
r 0.225896 0 1 tcp 1040 ------- 1 0.0 1.0 26 40
+ 0.225896 1 0 ack 40 ------- 1 1.0 0.0 26 71
- 0.225896 1 0 ack 40 ------- 1 1.0 0.0 26 71
r 0.226096 1 0 ack 40 ------- 1 1.0 0.0 25 69
+ 0.226096 0 1 tcp 1040 ------- 1 0.0 1.0 45 72
- 0.22656 0 1 tcp 1040 ------- 1 0.0 1.0 29 45
r 0.226728 0 1 tcp 1040 ------- 1 0.0 1.0 27 42
+ 0.226728 1 0 ack 40 ------- 1 1.0 0.0 27 73
- 0.226728 1 0 ack 40 ------- 1 1.0 0.0 27 73
r 0.226928 1 0 ack 40 ------- 1 1.0 0.0 26 71
+ 0.226928 0 1 tcp 1040 ------- 1 0.0 1.0 46 74
- 0.227392 0 1 tcp 1040 ------- 1 0.0 1.0 30 46
r 0.22756 0 1 tcp 1040 ------- 1 0.0 1.0 28 43
+ 0.22756 1 0 ack 40 ------- 1 1.0 0.0 28 75
- 0.22756 1 0 ack 40 ------- 1 1.0 0.0 28 75
r 0.22776 1 0 ack 40 ------- 1 1.0 0.0 27 73
+ 0.22776 0 1 tcp 1040 ------- 1 0.0 1.0 47 76
- 0.228224 0 1 tcp 1040 ------- 1 0.0 1.0 31 48
r 0.228392 0 1 tcp 1040 ------- 1 0.0 1.0 29 45
+ 0.228392 1 0 ack 40 ------- 1 1.0 0.0 29 77
- 0.228392 1 0 ack 40 ------- 1 1.0 0.0 29 77
r 0.228592 1 0 ack 40 ------- 1 1.0 0.0 28 75
+ 0.228592 0 1 tcp 1040 ------- 1 0.0 1.0 48 78
- 0.229056 0 1 tcp 1040 ------- 1 0.0 1.0 32 49
r 0.229224 0 1 tcp 1040 ------- 1 0.0 1.0 30 46
+ 0.229224 1 0 ack 40 ------- 1 1.0 0.0 30 79
- 0.229224 1 0 ack 40 ------- 1 1.0 0.0 30 79
r 0.229424 1 0 ack 40 ------- 1 1.0 0.0 29 77
+ 0.229424 0 1 tcp 1040 ------- 1 0.0 1.0 49 80
- 0.229888 0 1 tcp 1040 ------- 1 0.0 1.0 33 51
r 0.230056 0 1 tcp 1040 ------- 1 0.0 1.0 31 48
+ 0.230056 1 0 ack 40 ------- 1 1.0 0.0 31 81
- 0.230056 1 0 ack 40 ------- 1 1.0 0.0 31 81
r 0.230256 1 0 ack 40 ------- 1 1.0 0.0 30 79
+ 0.230256 0 1 tcp 1040 ------- 1 0.0 1.0 50 82
- 0.23072 0 1 tcp 1040 ------- 1 0.0 1.0 34 52
r 0.230888 0 1 tcp 1040 ------- 1 0.0 1.0 32 49
+ 0.230888 1 0 ack 40 ------- 1 1.0 0.0 32 83
- 0.230888 1 0 ack 40 ------- 1 1.0 0.0 32 83
r 0.231088 1 0 ack 40 ------- 1 1.0 0.0 31 81
+ 0.231088 0 1 tcp 1040 ------- 1 0.0 1.0 51 84
- 0.231552 0 1 tcp 1040 ------- 1 0.0 1.0 35 54
r 0.23172 0 1 tcp 1040 ------- 1 0.0 1.0 33 51
+ 0.23172 1 0 ack 40 ------- 1 1.0 0.0 33 85
- 0.23172 1 0 ack 40 ------- 1 1.0 0.0 33 85
r 0.23192 1 0 ack 40 ------- 1 1.0 0.0 32 83
+ 0.23192 0 1 tcp 1040 ------- 1 0.0 1.0 52 86
- 0.232384 0 1 tcp 1040 ------- 1 0.0 1.0 36 55
r 0.232552 0 1 tcp 1040 ------- 1 0.0 1.0 34 52
+ 0.232552 1 0 ack 40 ------- 1 1.0 0.0 34 87
- 0.232552 1 0 ack 40 ------- 1 1.0 0.0 34 87
r 0.232752 1 0 ack 40 ------- 1 1.0 0.0 33 85
+ 0.232752 0 1 tcp 1040 ------- 1 0.0 1.0 53 88
- 0.233216 0 1 tcp 1040 ------- 1 0.0 1.0 37 57
r 0.233384 0 1 tcp 1040 ------- 1 0.0 1.0 35 54
+ 0.233384 1 0 ack 40 ------- 1 1.0 0.0 35 89
- 0.233384 1 0 ack 40 ------- 1 1.0 0.0 35 89
r 0.233584 1 0 ack 40 ------- 1 1.0 0.0 34 87
+ 0.233584 0 1 tcp 1040 ------- 1 0.0 1.0 54 90
- 0.234048 0 1 tcp 1040 ------- 1 0.0 1.0 38 58
r 0.234216 0 1 tcp 1040 ------- 1 0.0 1.0 36 55
+ 0.234216 1 0 ack 40 ------- 1 1.0 0.0 36 91
- 0.234216 1 0 ack 40 ------- 1 1.0 0.0 36 91
r 0.234416 1 0 ack 40 ------- 1 1.0 0.0 35 89
+ 0.234416 0 1 tcp 1040 ------- 1 0.0 1.0 55 92
- 0.23488 0 1 tcp 1040 ------- 1 0.0 1.0 39 60
r 0.235048 0 1 tcp 1040 ------- 1 0.0 1.0 37 57
+ 0.235048 1 0 ack 40 ------- 1 1.0 0.0 37 93
- 0.235048 1 0 ack 40 ------- 1 1.0 0.0 37 93
r 0.235248 1 0 ack 40 ------- 1 1.0 0.0 36 91
+ 0.235248 0 1 tcp 1040 ------- 1 0.0 1.0 56 94
- 0.235712 0 1 tcp 1040 ------- 1 0.0 1.0 40 62
r 0.23588 0 1 tcp 1040 ------- 1 0.0 1.0 38 58
+ 0.23588 1 0 ack 40 ------- 1 1.0 0.0 38 95
- 0.23588 1 0 ack 40 ------- 1 1.0 0.0 38 95
r 0.23608 1 0 ack 40 ------- 1 1.0 0.0 37 93
+ 0.23608 0 1 tcp 1040 ------- 1 0.0 1.0 57 96
- 0.236544 0 1 tcp 1040 ------- 1 0.0 1.0 41 64
r 0.236712 0 1 tcp 1040 ------- 1 0.0 1.0 39 60
+ 0.236712 1 0 ack 40 ------- 1 1.0 0.0 39 97
- 0.236712 1 0 ack 40 ------- 1 1.0 0.0 39 97
r 0.236912 1 0 ack 40 ------- 1 1.0 0.0 38 95
+ 0.236912 0 1 tcp 1040 ------- 1 0.0 1.0 58 98
- 0.237376 0 1 tcp 1040 ------- 1 0.0 1.0 42 66
r 0.237544 0 1 tcp 1040 ------- 1 0.0 1.0 40 62
+ 0.237544 1 0 ack 40 ------- 1 1.0 0.0 40 99
- 0.237544 1 0 ack 40 ------- 1 1.0 0.0 40 99
r 0.237744 1 0 ack 40 ------- 1 1.0 0.0 39 97
+ 0.237744 0 1 tcp 1040 ------- 1 0.0 1.0 59 100
- 0.238208 0 1 tcp 1040 ------- 1 0.0 1.0 43 68
r 0.238376 0 1 tcp 1040 ------- 1 0.0 1.0 41 64
+ 0.238376 1 0 ack 40 ------- 1 1.0 0.0 41 101
- 0.238376 1 0 ack 40 ------- 1 1.0 0.0 41 101
r 0.238576 1 0 ack 40 ------- 1 1.0 0.0 40 99
+ 0.238576 0 1 tcp 1040 ------- 1 0.0 1.0 60 102
- 0.23904 0 1 tcp 1040 ------- 1 0.0 1.0 44 70
r 0.239208 0 1 tcp 1040 ------- 1 0.0 1.0 42 66
+ 0.239208 1 0 ack 40 ------- 1 1.0 0.0 42 103
- 0.239208 1 0 ack 40 ------- 1 1.0 0.0 42 103
r 0.239408 1 0 ack 40 ------- 1 1.0 0.0 41 101
+ 0.239408 0 1 tcp 1040 ------- 1 0.0 1.0 61 104
- 0.239872 0 1 tcp 1040 ------- 1 0.0 1.0 45 72
r 0.24004 0 1 tcp 1040 ------- 1 0.0 1.0 43 68
+ 0.24004 1 0 ack 40 ------- 1 1.0 0.0 43 105
- 0.24004 1 0 ack 40 ------- 1 1.0 0.0 43 105
r 0.24024 1 0 ack 40 ------- 1 1.0 0.0 42 103
+ 0.24024 0 1 tcp 1040 ------- 1 0.0 1.0 62 106
- 0.240704 0 1 tcp 1040 ------- 1 0.0 1.0 46 74
r 0.240872 0 1 tcp 1040 ------- 1 0.0 1.0 44 70
+ 0.240872 1 0 ack 40 ------- 1 1.0 0.0 44 107
- 0.240872 1 0 ack 40 ------- 1 1.0 0.0 44 107
r 0.241072 1 0 ack 40 ------- 1 1.0 0.0 43 105
+ 0.241072 0 1 tcp 1040 ------- 1 0.0 1.0 63 108
- 0.241536 0 1 tcp 1040 ------- 1 0.0 1.0 47 76
r 0.241704 0 1 tcp 1040 ------- 1 0.0 1.0 45 72
+ 0.241704 1 0 ack 40 ------- 1 1.0 0.0 45 109
- 0.241704 1 0 ack 40 ------- 1 1.0 0.0 45 109
r 0.241904 1 0 ack 40 ------- 1 1.0 0.0 44 107
+ 0.241904 0 1 tcp 1040 ------- 1 0.0 1.0 64 110
- 0.242368 0 1 tcp 1040 ------- 1 0.0 1.0 48 78
r 0.242536 0 1 tcp 1040 ------- 1 0.0 1.0 46 74
+ 0.242536 1 0 ack 40 ------- 1 1.0 0.0 46 111
- 0.242536 1 0 ack 40 ------- 1 1.0 0.0 46 111
r 0.242736 1 0 ack 40 ------- 1 1.0 0.0 45 109
+ 0.242736 0 1 tcp 1040 ------- 1 0.0 1.0 65 112
- 0.2432 0 1 tcp 1040 ------- 1 0.0 1.0 49 80
r 0.243368 0 1 tcp 1040 ------- 1 0.0 1.0 47 76
+ 0.243368 1 0 ack 40 ------- 1 1.0 0.0 47 113
- 0.243368 1 0 ack 40 ------- 1 1.0 0.0 47 113
r 0.243568 1 0 ack 40 ------- 1 1.0 0.0 46 111
+ 0.243568 0 1 tcp 1040 ------- 1 0.0 1.0 66 114
- 0.244032 0 1 tcp 1040 ------- 1 0.0 1.0 50 82
r 0.2442 0 1 tcp 1040 ------- 1 0.0 1.0 48 78
+ 0.2442 1 0 ack 40 ------- 1 1.0 0.0 48 115
- 0.2442 1 0 ack 40 ------- 1 1.0 0.0 48 115
r 0.2444 1 0 ack 40 ------- 1 1.0 0.0 47 113
+ 0.2444 0 1 tcp 1040 ------- 1 0.0 1.0 67 116
- 0.244864 0 1 tcp 1040 ------- 1 0.0 1.0 51 84
r 0.245032 0 1 tcp 1040 ------- 1 0.0 1.0 49 80
+ 0.245032 1 0 ack 40 ------- 1 1.0 0.0 49 117
- 0.245032 1 0 ack 40 ------- 1 1.0 0.0 49 117
r 0.245232 1 0 ack 40 ------- 1 1.0 0.0 48 115
+ 0.245232 0 1 tcp 1040 ------- 1 0.0 1.0 68 118
- 0.245696 0 1 tcp 1040 ------- 1 0.0 1.0 52 86
r 0.245864 0 1 tcp 1040 ------- 1 0.0 1.0 50 82
+ 0.245864 1 0 ack 40 ------- 1 1.0 0.0 50 119
- 0.245864 1 0 ack 40 ------- 1 1.0 0.0 50 119
r 0.246064 1 0 ack 40 ------- 1 1.0 0.0 49 117
+ 0.246064 0 1 tcp 1040 ------- 1 0.0 1.0 69 120
- 0.246528 0 1 tcp 1040 ------- 1 0.0 1.0 53 88
r 0.246696 0 1 tcp 1040 ------- 1 0.0 1.0 51 84
+ 0.246696 1 0 ack 40 ------- 1 1.0 0.0 51 121
- 0.246696 1 0 ack 40 ------- 1 1.0 0.0 51 121
r 0.246896 1 0 ack 40 ------- 1 1.0 0.0 50 119
+ 0.246896 0 1 tcp 1040 ------- 1 0.0 1.0 70 122
- 0.24736 0 1 tcp 1040 ------- 1 0.0 1.0 54 90
r 0.247528 0 1 tcp 1040 ------- 1 0.0 1.0 52 86
+ 0.247528 1 0 ack 40 ------- 1 1.0 0.0 52 123
- 0.247528 1 0 ack 40 ------- 1 1.0 0.0 52 123
r 0.247728 1 0 ack 40 ------- 1 1.0 0.0 51 121
+ 0.247728 0 1 tcp 1040 ------- 1 0.0 1.0 71 124
- 0.248192 0 1 tcp 1040 ------- 1 0.0 1.0 55 92
r 0.24836 0 1 tcp 1040 ------- 1 0.0 1.0 53 88
+ 0.24836 1 0 ack 40 ------- 1 1.0 0.0 53 125
- 0.24836 1 0 ack 40 ------- 1 1.0 0.0 53 125
r 0.24856 1 0 ack 40 ------- 1 1.0 0.0 52 123
+ 0.24856 0 1 tcp 1040 ------- 1 0.0 1.0 72 126
- 0.249024 0 1 tcp 1040 ------- 1 0.0 1.0 56 94
r 0.249192 0 1 tcp 1040 ------- 1 0.0 1.0 54 90
+ 0.249192 1 0 ack 40 ------- 1 1.0 0.0 54 127
- 0.249192 1 0 ack 40 ------- 1 1.0 0.0 54 127
r 0.249392 1 0 ack 40 ------- 1 1.0 0.0 53 125
+ 0.249392 0 1 tcp 1040 ------- 1 0.0 1.0 73 128
- 0.249856 0 1 tcp 1040 ------- 1 0.0 1.0 57 96
r 0.250024 0 1 tcp 1040 ------- 1 0.0 1.0 55 92
+ 0.250024 1 0 ack 40 ------- 1 1.0 0.0 55 129
- 0.250024 1 0 ack 40 ------- 1 1.0 0.0 55 129
r 0.250224 1 0 ack 40 ------- 1 1.0 0.0 54 127
+ 0.250224 0 1 tcp 1040 ------- 1 0.0 1.0 74 130
- 0.250688 0 1 tcp 1040 ------- 1 0.0 1.0 58 98
r 0.250856 0 1 tcp 1040 ------- 1 0.0 1.0 56 94
+ 0.250856 1 0 ack 40 ------- 1 1.0 0.0 56 131
- 0.250856 1 0 ack 40 ------- 1 1.0 0.0 56 131
r 0.251056 1 0 ack 40 ------- 1 1.0 0.0 55 129
+ 0.251056 0 1 tcp 1040 ------- 1 0.0 1.0 75 132
- 0.25152 0 1 tcp 1040 ------- 1 0.0 1.0 59 100
r 0.251688 0 1 tcp 1040 ------- 1 0.0 1.0 57 96
+ 0.251688 1 0 ack 40 ------- 1 1.0 0.0 57 133
- 0.251688 1 0 ack 40 ------- 1 1.0 0.0 57 133
r 0.251888 1 0 ack 40 ------- 1 1.0 0.0 56 131
+ 0.251888 0 1 tcp 1040 ------- 1 0.0 1.0 76 134
- 0.252352 0 1 tcp 1040 ------- 1 0.0 1.0 60 102
r 0.25252 0 1 tcp 1040 ------- 1 0.0 1.0 58 98
+ 0.25252 1 0 ack 40 ------- 1 1.0 0.0 58 135
- 0.25252 1 0 ack 40 ------- 1 1.0 0.0 58 135
r 0.25272 1 0 ack 40 ------- 1 1.0 0.0 57 133
+ 0.25272 0 1 tcp 1040 ------- 1 0.0 1.0 77 136
- 0.253184 0 1 tcp 1040 ------- 1 0.0 1.0 61 104
r 0.253352 0 1 tcp 1040 ------- 1 0.0 1.0 59 100
+ 0.253352 1 0 ack 40 ------- 1 1.0 0.0 59 137
- 0.253352 1 0 ack 40 ------- 1 1.0 0.0 59 137
r 0.253552 1 0 ack 40 ------- 1 1.0 0.0 58 135
+ 0.253552 0 1 tcp 1040 ------- 1 0.0 1.0 78 138
- 0.254016 0 1 tcp 1040 ------- 1 0.0 1.0 62 106
r 0.254184 0 1 tcp 1040 ------- 1 0.0 1.0 60 102
+ 0.254184 1 0 ack 40 ------- 1 1.0 0.0 60 139
- 0.254184 1 0 ack 40 ------- 1 1.0 0.0 60 139
r 0.254384 1 0 ack 40 ------- 1 1.0 0.0 59 137
+ 0.254384 0 1 tcp 1040 ------- 1 0.0 1.0 79 140
- 0.254848 0 1 tcp 1040 ------- 1 0.0 1.0 63 108
r 0.255016 0 1 tcp 1040 ------- 1 0.0 1.0 61 104
+ 0.255016 1 0 ack 40 ------- 1 1.0 0.0 61 141
- 0.255016 1 0 ack 40 ------- 1 1.0 0.0 61 141
r 0.255216 1 0 ack 40 ------- 1 1.0 0.0 60 139
+ 0.255216 0 1 tcp 1040 ------- 1 0.0 1.0 80 142
- 0.25568 0 1 tcp 1040 ------- 1 0.0 1.0 64 110
r 0.255848 0 1 tcp 1040 ------- 1 0.0 1.0 62 106
+ 0.255848 1 0 ack 40 ------- 1 1.0 0.0 62 143
- 0.255848 1 0 ack 40 ------- 1 1.0 0.0 62 143
r 0.256048 1 0 ack 40 ------- 1 1.0 0.0 61 141
+ 0.256048 0 1 tcp 1040 ------- 1 0.0 1.0 81 144
- 0.256512 0 1 tcp 1040 ------- 1 0.0 1.0 65 112
r 0.25668 0 1 tcp 1040 ------- 1 0.0 1.0 63 108
+ 0.25668 1 0 ack 40 ------- 1 1.0 0.0 63 145
- 0.25668 1 0 ack 40 ------- 1 1.0 0.0 63 145
r 0.25688 1 0 ack 40 ------- 1 1.0 0.0 62 143
+ 0.25688 0 1 tcp 1040 ------- 1 0.0 1.0 82 146
- 0.257344 0 1 tcp 1040 ------- 1 0.0 1.0 66 114
r 0.257512 0 1 tcp 1040 ------- 1 0.0 1.0 64 110
+ 0.257512 1 0 ack 40 ------- 1 1.0 0.0 64 147
- 0.257512 1 0 ack 40 ------- 1 1.0 0.0 64 147
r 0.257712 1 0 ack 40 ------- 1 1.0 0.0 63 145
+ 0.257712 0 1 tcp 1040 ------- 1 0.0 1.0 83 148
- 0.258176 0 1 tcp 1040 ------- 1 0.0 1.0 67 116
r 0.258344 0 1 tcp 1040 ------- 1 0.0 1.0 65 112
+ 0.258344 1 0 ack 40 ------- 1 1.0 0.0 65 149
- 0.258344 1 0 ack 40 ------- 1 1.0 0.0 65 149
r 0.258544 1 0 ack 40 ------- 1 1.0 0.0 64 147
+ 0.258544 0 1 tcp 1040 ------- 1 0.0 1.0 84 150
- 0.259008 0 1 tcp 1040 ------- 1 0.0 1.0 68 118
r 0.259176 0 1 tcp 1040 ------- 1 0.0 1.0 66 114
+ 0.259176 1 0 ack 40 ------- 1 1.0 0.0 66 151
- 0.259176 1 0 ack 40 ------- 1 1.0 0.0 66 151
r 0.259376 1 0 ack 40 ------- 1 1.0 0.0 65 149
+ 0.259376 0 1 tcp 1040 ------- 1 0.0 1.0 85 152
- 0.25984 0 1 tcp 1040 ------- 1 0.0 1.0 69 120
r 0.260008 0 1 tcp 1040 ------- 1 0.0 1.0 67 116
+ 0.260008 1 0 ack 40 ------- 1 1.0 0.0 67 153
- 0.260008 1 0 ack 40 ------- 1 1.0 0.0 67 153
r 0.260208 1 0 ack 40 ------- 1 1.0 0.0 66 151
+ 0.260208 0 1 tcp 1040 ------- 1 0.0 1.0 86 154
- 0.260672 0 1 tcp 1040 ------- 1 0.0 1.0 70 122
r 0.26084 0 1 tcp 1040 ------- 1 0.0 1.0 68 118
+ 0.26084 1 0 ack 40 ------- 1 1.0 0.0 68 155
- 0.26084 1 0 ack 40 ------- 1 1.0 0.0 68 155
r 0.26104 1 0 ack 40 ------- 1 1.0 0.0 67 153
+ 0.26104 0 1 tcp 1040 ------- 1 0.0 1.0 87 156
- 0.261504 0 1 tcp 1040 ------- 1 0.0 1.0 71 124
r 0.261672 0 1 tcp 1040 ------- 1 0.0 1.0 69 120
+ 0.261672 1 0 ack 40 ------- 1 1.0 0.0 69 157
- 0.261672 1 0 ack 40 ------- 1 1.0 0.0 69 157
r 0.261872 1 0 ack 40 ------- 1 1.0 0.0 68 155
+ 0.261872 0 1 tcp 1040 ------- 1 0.0 1.0 88 158
- 0.262336 0 1 tcp 1040 ------- 1 0.0 1.0 72 126
r 0.262504 0 1 tcp 1040 ------- 1 0.0 1.0 70 122
+ 0.262504 1 0 ack 40 ------- 1 1.0 0.0 70 159
- 0.262504 1 0 ack 40 ------- 1 1.0 0.0 70 159
r 0.262704 1 0 ack 40 ------- 1 1.0 0.0 69 157
+ 0.262704 0 1 tcp 1040 ------- 1 0.0 1.0 89 160
- 0.263168 0 1 tcp 1040 ------- 1 0.0 1.0 73 128
r 0.263336 0 1 tcp 1040 ------- 1 0.0 1.0 71 124
+ 0.263336 1 0 ack 40 ------- 1 1.0 0.0 71 161
- 0.263336 1 0 ack 40 ------- 1 1.0 0.0 71 161
r 0.263536 1 0 ack 40 ------- 1 1.0 0.0 70 159
+ 0.263536 0 1 tcp 1040 ------- 1 0.0 1.0 90 162
- 0.264 0 1 tcp 1040 ------- 1 0.0 1.0 74 130
r 0.264168 0 1 tcp 1040 ------- 1 0.0 1.0 72 126
+ 0.264168 1 0 ack 40 ------- 1 1.0 0.0 72 163
- 0.264168 1 0 ack 40 ------- 1 1.0 0.0 72 163
r 0.264368 1 0 ack 40 ------- 1 1.0 0.0 71 161
+ 0.264368 0 1 tcp 1040 ------- 1 0.0 1.0 91 164
- 0.264832 0 1 tcp 1040 ------- 1 0.0 1.0 75 132
r 0.265 0 1 tcp 1040 ------- 1 0.0 1.0 73 128
+ 0.265 1 0 ack 40 ------- 1 1.0 0.0 73 165
- 0.265 1 0 ack 40 ------- 1 1.0 0.0 73 165
r 0.2652 1 0 ack 40 ------- 1 1.0 0.0 72 163
+ 0.2652 0 1 tcp 1040 ------- 1 0.0 1.0 92 166
- 0.265664 0 1 tcp 1040 ------- 1 0.0 1.0 76 134
r 0.265832 0 1 tcp 1040 ------- 1 0.0 1.0 74 130
+ 0.265832 1 0 ack 40 ------- 1 1.0 0.0 74 167
- 0.265832 1 0 ack 40 ------- 1 1.0 0.0 74 167
r 0.266032 1 0 ack 40 ------- 1 1.0 0.0 73 165
+ 0.266032 0 1 tcp 1040 ------- 1 0.0 1.0 93 168
- 0.266496 0 1 tcp 1040 ------- 1 0.0 1.0 77 136
r 0.266664 0 1 tcp 1040 ------- 1 0.0 1.0 75 132
+ 0.266664 1 0 ack 40 ------- 1 1.0 0.0 75 169
- 0.266664 1 0 ack 40 ------- 1 1.0 0.0 75 169
r 0.266864 1 0 ack 40 ------- 1 1.0 0.0 74 167
+ 0.266864 0 1 tcp 1040 ------- 1 0.0 1.0 94 170
- 0.267328 0 1 tcp 1040 ------- 1 0.0 1.0 78 138
r 0.267496 0 1 tcp 1040 ------- 1 0.0 1.0 76 134
+ 0.267496 1 0 ack 40 ------- 1 1.0 0.0 76 171
- 0.267496 1 0 ack 40 ------- 1 1.0 0.0 76 171
r 0.267696 1 0 ack 40 ------- 1 1.0 0.0 75 169
+ 0.267696 0 1 tcp 1040 ------- 1 0.0 1.0 95 172
- 0.26816 0 1 tcp 1040 ------- 1 0.0 1.0 79 140
r 0.268328 0 1 tcp 1040 ------- 1 0.0 1.0 77 136
+ 0.268328 1 0 ack 40 ------- 1 1.0 0.0 77 173
- 0.268328 1 0 ack 40 ------- 1 1.0 0.0 77 173
r 0.268528 1 0 ack 40 ------- 1 1.0 0.0 76 171
+ 0.268528 0 1 tcp 1040 ------- 1 0.0 1.0 96 174
- 0.268992 0 1 tcp 1040 ------- 1 0.0 1.0 80 142
r 0.26916 0 1 tcp 1040 ------- 1 0.0 1.0 78 138
+ 0.26916 1 0 ack 40 ------- 1 1.0 0.0 78 175
- 0.26916 1 0 ack 40 ------- 1 1.0 0.0 78 175
r 0.26936 1 0 ack 40 ------- 1 1.0 0.0 77 173
+ 0.26936 0 1 tcp 1040 ------- 1 0.0 1.0 97 176
- 0.269824 0 1 tcp 1040 ------- 1 0.0 1.0 81 144
r 0.269992 0 1 tcp 1040 ------- 1 0.0 1.0 79 140
+ 0.269992 1 0 ack 40 ------- 1 1.0 0.0 79 177
- 0.269992 1 0 ack 40 ------- 1 1.0 0.0 79 177
r 0.270192 1 0 ack 40 ------- 1 1.0 0.0 78 175
+ 0.270192 0 1 tcp 1040 ------- 1 0.0 1.0 98 178
- 0.270656 0 1 tcp 1040 ------- 1 0.0 1.0 82 146
r 0.270824 0 1 tcp 1040 ------- 1 0.0 1.0 80 142
+ 0.270824 1 0 ack 40 ------- 1 1.0 0.0 80 179
- 0.270824 1 0 ack 40 ------- 1 1.0 0.0 80 179
r 0.271024 1 0 ack 40 ------- 1 1.0 0.0 79 177
+ 0.271024 0 1 tcp 1040 ------- 1 0.0 1.0 99 180
- 0.271488 0 1 tcp 1040 ------- 1 0.0 1.0 83 148
r 0.271656 0 1 tcp 1040 ------- 1 0.0 1.0 81 144
+ 0.271656 1 0 ack 40 ------- 1 1.0 0.0 81 181
- 0.271656 1 0 ack 40 ------- 1 1.0 0.0 81 181
r 0.271856 1 0 ack 40 ------- 1 1.0 0.0 80 179
+ 0.271856 0 1 tcp 1040 ------- 1 0.0 1.0 100 182
- 0.27232 0 1 tcp 1040 ------- 1 0.0 1.0 84 150
r 0.272488 0 1 tcp 1040 ------- 1 0.0 1.0 82 146
+ 0.272488 1 0 ack 40 ------- 1 1.0 0.0 82 183
- 0.272488 1 0 ack 40 ------- 1 1.0 0.0 82 183
r 0.272688 1 0 ack 40 ------- 1 1.0 0.0 81 181
+ 0.272688 0 1 tcp 1040 ------- 1 0.0 1.0 101 184
- 0.273152 0 1 tcp 1040 ------- 1 0.0 1.0 85 152
r 0.27332 0 1 tcp 1040 ------- 1 0.0 1.0 83 148
+ 0.27332 1 0 ack 40 ------- 1 1.0 0.0 83 185
- 0.27332 1 0 ack 40 ------- 1 1.0 0.0 83 185
r 0.27352 1 0 ack 40 ------- 1 1.0 0.0 82 183
+ 0.27352 0 1 tcp 1040 ------- 1 0.0 1.0 102 186
- 0.273984 0 1 tcp 1040 ------- 1 0.0 1.0 86 154
r 0.274152 0 1 tcp 1040 ------- 1 0.0 1.0 84 150
+ 0.274152 1 0 ack 40 ------- 1 1.0 0.0 84 187
- 0.274152 1 0 ack 40 ------- 1 1.0 0.0 84 187
r 0.274352 1 0 ack 40 ------- 1 1.0 0.0 83 185
+ 0.274352 0 1 tcp 1040 ------- 1 0.0 1.0 103 188
- 0.274816 0 1 tcp 1040 ------- 1 0.0 1.0 87 156
r 0.274984 0 1 tcp 1040 ------- 1 0.0 1.0 85 152
+ 0.274984 1 0 ack 40 ------- 1 1.0 0.0 85 189
- 0.274984 1 0 ack 40 ------- 1 1.0 0.0 85 189
r 0.275184 1 0 ack 40 ------- 1 1.0 0.0 84 187
+ 0.275184 0 1 tcp 1040 ------- 1 0.0 1.0 104 190
- 0.275648 0 1 tcp 1040 ------- 1 0.0 1.0 88 158
r 0.275816 0 1 tcp 1040 ------- 1 0.0 1.0 86 154
+ 0.275816 1 0 ack 40 ------- 1 1.0 0.0 86 191
- 0.275816 1 0 ack 40 ------- 1 1.0 0.0 86 191
r 0.276016 1 0 ack 40 ------- 1 1.0 0.0 85 189
+ 0.276016 0 1 tcp 1040 ------- 1 0.0 1.0 105 192
- 0.27648 0 1 tcp 1040 ------- 1 0.0 1.0 89 160
r 0.276648 0 1 tcp 1040 ------- 1 0.0 1.0 87 156
+ 0.276648 1 0 ack 40 ------- 1 1.0 0.0 87 193
- 0.276648 1 0 ack 40 ------- 1 1.0 0.0 87 193
r 0.276848 1 0 ack 40 ------- 1 1.0 0.0 86 191
+ 0.276848 0 1 tcp 1040 ------- 1 0.0 1.0 106 194
- 0.277312 0 1 tcp 1040 ------- 1 0.0 1.0 90 162
r 0.27748 0 1 tcp 1040 ------- 1 0.0 1.0 88 158
+ 0.27748 1 0 ack 40 ------- 1 1.0 0.0 88 195
- 0.27748 1 0 ack 40 ------- 1 1.0 0.0 88 195
r 0.27768 1 0 ack 40 ------- 1 1.0 0.0 87 193
+ 0.27768 0 1 tcp 1040 ------- 1 0.0 1.0 107 196
- 0.278144 0 1 tcp 1040 ------- 1 0.0 1.0 91 164
r 0.278312 0 1 tcp 1040 ------- 1 0.0 1.0 89 160
+ 0.278312 1 0 ack 40 ------- 1 1.0 0.0 89 197
- 0.278312 1 0 ack 40 ------- 1 1.0 0.0 89 197
r 0.278512 1 0 ack 40 ------- 1 1.0 0.0 88 195
+ 0.278512 0 1 tcp 1040 ------- 1 0.0 1.0 108 198
- 0.278976 0 1 tcp 1040 ------- 1 0.0 1.0 92 166
r 0.279144 0 1 tcp 1040 ------- 1 0.0 1.0 90 162
+ 0.279144 1 0 ack 40 ------- 1 1.0 0.0 90 199
- 0.279144 1 0 ack 40 ------- 1 1.0 0.0 90 199
r 0.279344 1 0 ack 40 ------- 1 1.0 0.0 89 197
+ 0.279344 0 1 tcp 1040 ------- 1 0.0 1.0 109 200
- 0.279808 0 1 tcp 1040 ------- 1 0.0 1.0 93 168
r 0.279976 0 1 tcp 1040 ------- 1 0.0 1.0 91 164
+ 0.279976 1 0 ack 40 ------- 1 1.0 0.0 91 201
- 0.279976 1 0 ack 40 ------- 1 1.0 0.0 91 201
r 0.280176 1 0 ack 40 ------- 1 1.0 0.0 90 199
+ 0.280176 0 1 tcp 1040 ------- 1 0.0 1.0 110 202
- 0.28064 0 1 tcp 1040 ------- 1 0.0 1.0 94 170
r 0.280808 0 1 tcp 1040 ------- 1 0.0 1.0 92 166
+ 0.280808 1 0 ack 40 ------- 1 1.0 0.0 92 203
- 0.280808 1 0 ack 40 ------- 1 1.0 0.0 92 203
r 0.281008 1 0 ack 40 ------- 1 1.0 0.0 91 201
+ 0.281008 0 1 tcp 1040 ------- 1 0.0 1.0 111 204
- 0.281472 0 1 tcp 1040 ------- 1 0.0 1.0 95 172
r 0.28164 0 1 tcp 1040 ------- 1 0.0 1.0 93 168
+ 0.28164 1 0 ack 40 ------- 1 1.0 0.0 93 205
- 0.28164 1 0 ack 40 ------- 1 1.0 0.0 93 205
r 0.28184 1 0 ack 40 ------- 1 1.0 0.0 92 203
+ 0.28184 0 1 tcp 1040 ------- 1 0.0 1.0 112 206
- 0.282304 0 1 tcp 1040 ------- 1 0.0 1.0 96 174
r 0.282472 0 1 tcp 1040 ------- 1 0.0 1.0 94 170
+ 0.282472 1 0 ack 40 ------- 1 1.0 0.0 94 207
- 0.282472 1 0 ack 40 ------- 1 1.0 0.0 94 207
r 0.282672 1 0 ack 40 ------- 1 1.0 0.0 93 205
+ 0.282672 0 1 tcp 1040 ------- 1 0.0 1.0 113 208
- 0.283136 0 1 tcp 1040 ------- 1 0.0 1.0 97 176
r 0.283304 0 1 tcp 1040 ------- 1 0.0 1.0 95 172
+ 0.283304 1 0 ack 40 ------- 1 1.0 0.0 95 209
- 0.283304 1 0 ack 40 ------- 1 1.0 0.0 95 209
r 0.283504 1 0 ack 40 ------- 1 1.0 0.0 94 207
+ 0.283504 0 1 tcp 1040 ------- 1 0.0 1.0 114 210
- 0.283968 0 1 tcp 1040 ------- 1 0.0 1.0 98 178
r 0.284136 0 1 tcp 1040 ------- 1 0.0 1.0 96 174
+ 0.284136 1 0 ack 40 ------- 1 1.0 0.0 96 211
- 0.284136 1 0 ack 40 ------- 1 1.0 0.0 96 211
r 0.284336 1 0 ack 40 ------- 1 1.0 0.0 95 209
+ 0.284336 0 1 tcp 1040 ------- 1 0.0 1.0 115 212
- 0.2848 0 1 tcp 1040 ------- 1 0.0 1.0 99 180
r 0.284968 0 1 tcp 1040 ------- 1 0.0 1.0 97 176
+ 0.284968 1 0 ack 40 ------- 1 1.0 0.0 97 213
- 0.284968 1 0 ack 40 ------- 1 1.0 0.0 97 213
r 0.285168 1 0 ack 40 ------- 1 1.0 0.0 96 211
+ 0.285168 0 1 tcp 1040 ------- 1 0.0 1.0 116 214
- 0.285632 0 1 tcp 1040 ------- 1 0.0 1.0 100 182
r 0.2858 0 1 tcp 1040 ------- 1 0.0 1.0 98 178
+ 0.2858 1 0 ack 40 ------- 1 1.0 0.0 98 215
- 0.2858 1 0 ack 40 ------- 1 1.0 0.0 98 215
r 0.286 1 0 ack 40 ------- 1 1.0 0.0 97 213
+ 0.286 0 1 tcp 1040 ------- 1 0.0 1.0 117 216
- 0.286464 0 1 tcp 1040 ------- 1 0.0 1.0 101 184
r 0.286632 0 1 tcp 1040 ------- 1 0.0 1.0 99 180
+ 0.286632 1 0 ack 40 ------- 1 1.0 0.0 99 217
- 0.286632 1 0 ack 40 ------- 1 1.0 0.0 99 217
r 0.286832 1 0 ack 40 ------- 1 1.0 0.0 98 215
+ 0.286832 0 1 tcp 1040 ------- 1 0.0 1.0 118 218
- 0.287296 0 1 tcp 1040 ------- 1 0.0 1.0 102 186
r 0.287464 0 1 tcp 1040 ------- 1 0.0 1.0 100 182
+ 0.287464 1 0 ack 40 ------- 1 1.0 0.0 100 219
- 0.287464 1 0 ack 40 ------- 1 1.0 0.0 100 219
r 0.287664 1 0 ack 40 ------- 1 1.0 0.0 99 217
+ 0.287664 0 1 tcp 1040 ------- 1 0.0 1.0 119 220
- 0.288128 0 1 tcp 1040 ------- 1 0.0 1.0 103 188
r 0.288296 0 1 tcp 1040 ------- 1 0.0 1.0 101 184
+ 0.288296 1 0 ack 40 ------- 1 1.0 0.0 101 221
- 0.288296 1 0 ack 40 ------- 1 1.0 0.0 101 221
r 0.288496 1 0 ack 40 ------- 1 1.0 0.0 100 219
+ 0.288496 0 1 tcp 1040 ------- 1 0.0 1.0 120 222
- 0.28896 0 1 tcp 1040 ------- 1 0.0 1.0 104 190
r 0.289128 0 1 tcp 1040 ------- 1 0.0 1.0 102 186
+ 0.289128 1 0 ack 40 ------- 1 1.0 0.0 102 223