n -t 0 -s 0 -S DLABEL -l "source" -L ""
n -t 0 -s 1 -S DLABEL -l "link1" -L ""
V -t * -v 1.0a5 -a 0
A -t * -n 1 -p 0 -o 0x7fffffff -c 30 -a 1
A -t * -h 1 -m 1073741823 -s 0
c -t * -i 1 -n Blue
c -t * -i 2 -n Red
n -t * -a 4 -s 4 -S UP -v circle -c black -i black
n -t * -a 0 -s 0 -S UP -v circle -c black -i black
n -t * -a 1 -s 1 -S UP -v circle -c black -i black
n -t * -a 2 -s 2 -S UP -v circle -c black -i black
n -t * -a 3 -s 3 -S UP -v circle -c black -i black
l -t * -s 0 -d 1 -S UP -r 10000000 -D 0.001 -c black
l -t * -s 0 -d 2 -S UP -r 10000000 -D 0.001 -c black
l -t * -s 0 -d 3 -S UP -r 10000000 -D 0.001 -c black
l -t * -s 0 -d 4 -S UP -r 10000000 -D 0.001 -c black
l -t * -s 1 -d 2 -S UP -r 10000000 -D 0.001 -c black
l -t * -s 1 -d 3 -S UP -r 10000000 -D 0.001 -c black
l -t * -s 1 -d 4 -S UP -r 10000000 -D 0.001 -c black
l -t * -s 2 -d 3 -S UP -r 10000000 -D 0.001 -c black
l -t * -s 2 -d 4 -S UP -r 10000000 -D 0.001 -c black
l -t * -s 3 -d 4 -S UP -r 10000000 -D 0.001 -c black
+ -t 0.1 -s 3 -d 2 -p cbr -e 210 -c 2 -i 0 -a 2 -x {3.0 2.0 0 ------- null}
- -t 0.1 -s 3 -d 2 -p cbr -e 210 -c 2 -i 0 -a 2 -x {3.0 2.0 0 ------- null}
h -t 0.1 -s 3 -d 2 -p cbr -e 210 -c 2 -i 0 -a 2 -x {3.0 2.0 -1 ------- null}
r -t 0.101168 -s 3 -d 2 -p cbr -e 210 -c 2 -i 0 -a 2 -x {3.0 2.0 0 ------- null}
+ -t 0.10375 -s 3 -d 2 -p cbr -e 210 -c 2 -i 1 -a 2 -x {3.0 2.0 1 ------- null}
- -t 0.10375 -s 3 -d 2 -p cbr -e 210 -c 2 -i 1 -a 2 -x {3.0 2.0 1 ------- null}
h -t 0.10375 -s 3 -d 2 -p cbr -e 210 -c 2 -i 1 -a 2 -x {3.0 2.0 -1 ------- null}
r -t 0.104918 -s 3 -d 2 -p cbr -e 210 -c 2 -i 1 -a 2 -x {3.0 2.0 1 ------- null}
+ -t 0.1075 -s 3 -d 2 -p cbr -e 210 -c 2 -i 2 -a 2 -x {3.0 2.0 2 ------- null}
- -t 0.1075 -s 3 -d 2 -p cbr -e 210 -c 2 -i 2 -a 2 -x {3.0 2.0 2 ------- null}
h -t 0.1075 -s 3 -d 2 -p cbr -e 210 -c 2 -i 2 -a 2 -x {3.0 2.0 -1 ------- null}
r -t 0.108668 -s 3 -d 2 -p cbr -e 210 -c 2 -i 2 -a 2 -x {3.0 2.0 2 ------- null}
+ -t 0.11125 -s 3 -d 2 -p cbr -e 210 -c 2 -i 3 -a 2 -x {3.0 2.0 3 ------- null}
- -t 0.11125 -s 3 -d 2 -p cbr -e 210 -c 2 -i 3 -a 2 -x {3.0 2.0 3 ------- null}
h -t 0.11125 -s 3 -d 2 -p cbr -e 210 -c 2 -i 3 -a 2 -x {3.0 2.0 -1 ------- null}
r -t 0.112418 -s 3 -d 2 -p cbr -e 210 -c 2 -i 3 -a 2 -x {3.0 2.0 3 ------- null}
+ -t 0.115 -s 3 -d 2 -p cbr -e 210 -c 2 -i 4 -a 2 -x {3.0 2.0 4 ------- null}
- -t 0.115 -s 3 -d 2 -p cbr -e 210 -c 2 -i 4 -a 2 -x {3.0 2.0 4 ------- null}
h -t 0.115 -s 3 -d 2 -p cbr -e 210 -c 2 -i 4 -a 2 -x {3.0 2.0 -1 ------- null}
r -t 0.116168 -s 3 -d 2 -p cbr -e 210 -c 2 -i 4 -a 2 -x {3.0 2.0 4 ------- null}
+ -t 0.11875 -s 3 -d 2 -p cbr -e 210 -c 2 -i 5 -a 2 -x {3.0 2.0 5 ------- null}
- -t 0.11875 -s 3 -d 2 -p cbr -e 210 -c 2 -i 5 -a 2 -x {3.0 2.0 5 ------- null}
h -t 0.11875 -s 3 -d 2 -p cbr -e 210 -c 2 -i 5 -a 2 -x {3.0 2.0 -1 ------- null}
r -t 0.119918 -s 3 -d 2 -p cbr -e 210 -c 2 -i 5 -a 2 -x {3.0 2.0 5 ------- null}
+ -t 0.1225 -s 3 -d 2 -p cbr -e 210 -c 2 -i 6 -a 2 -x {3.0 2.0 6 ------- null}
- -t 0.1225 -s 3 -d 2 -p cbr -e 210 -c 2 -i 6 -a 2 -x {3.0 2.0 6 ------- null}
h -t 0.1225 -s 3 -d 2 -p cbr -e 210 -c 2 -i 6 -a 2 -x {3.0 2.0 -1 ------- null}
r -t 0.123668 -s 3 -d 2 -p cbr -e 210 -c 2 -i 6 -a 2 -x {3.0 2.0 6 ------- null}
+ -t 0.12625 -s 3 -d 2 -p cbr -e 210 -c 2 -i 7 -a 2 -x {3.0 2.0 7 ------- null}
- -t 0.12625 -s 3 -d 2 -p cbr -e 210 -c 2 -i 7 -a 2 -x {3.0 2.0 7 ------- null}
h -t 0.12625 -s 3 -d 2 -p cbr -e 210 -c 2 -i 7 -a 2 -x {3.0 2.0 -1 ------- null}
r -t 0.127418 -s 3 -d 2 -p cbr -e 210 -c 2 -i 7 -a 2 -x {3.0 2.0 7 ------- null}
+ -t 0.13 -s 3 -d 2 -p cbr -e 210 -c 2 -i 8 -a 2 -x {3.0 2.0 8 ------- null}
- -t 0.13 -s 3 -d 2 -p cbr -e 210 -c 2 -i 8 -a 2 -x {3.0 2.0 8 ------- null}
h -t 0.13 -s 3 -d 2 -p cbr -e 210 -c 2 -i 8 -a 2 -x {3.0 2.0 -1 ------- null}
r -t 0.131168 -s 3 -d 2 -p cbr -e 210 -c 2 -i 8 -a 2 -x {3.0 2.0 8 ------- null}
+ -t 0.13375 -s 3 -d 2 -p cbr -e 210 -c 2 -i 9 -a 2 -x {3.0 2.0 9 ------- null}
- -t 0.13375 -s 3 -d 2 -p cbr -e 210 -c 2 -i 9 -a 2 -x {3.0 2.0 9 ------- null}
h -t 0.13375 -s 3 -d 2 -p cbr -e 210 -c 2 -i 9 -a 2 -x {3.0 2.0 -1 ------- null}
r -t 0.134918 -s 3 -d 2 -p cbr -e 210 -c 2 -i 9 -a 2 -x {3.0 2.0 9 ------- null}
+ -t 0.1375 -s 3 -d 2 -p cbr -e 210 -c 2 -i 10 -a 2 -x {3.0 2.0 10 ------- null}
- -t 0.1375 -s 3 -d 2 -p cbr -e 210 -c 2 -i 10 -a 2 -x {3.0 2.0 10 ------- null}
h -t 0.1375 -s 3 -d 2 -p cbr -e 210 -c 2 -i 10 -a 2 -x {3.0 2.0 -1 ------- null}
r -t 0.138668 -s 3 -d 2 -p cbr -e 210 -c 2 -i 10 -a 2 -x {3.0 2.0 10 ------- null}
+ -t 0.14125 -s 3 -d 2 -p cbr -e 210 -c 2 -i 11 -a 2 -x {3.0 2.0 11 ------- null}
- -t 0.14125 -s 3 -d 2 -p cbr -e 210 -c 2 -i 11 -a 2 -x {3.0 2.0 11 ------- null}
h -t 0.14125 -s 3 -d 2 -p cbr -e 210 -c 2 -i 11 -a 2 -x {3.0 2.0 -1 ------- null}
r -t 0.142418 -s 3 -d 2 -p cbr -e 210 -c 2 -i 11 -a 2 -x {3.0 2.0 11 ------- null}
+ -t 0.145 -s 3 -d 2 -p cbr -e 210 -c 2 -i 12 -a 2 -x {3.0 2.0 12 ------- null}
- -t 0.145 -s 3 -d 2 -p cbr -e 210 -c 2 -i 12 -a 2 -x {3.0 2.0 12 ------- null}
h -t 0.145 -s 3 -d 2 -p cbr -e 210 -c 2 -i 12 -a 2 -x {3.0 2.0 -1 ------- null}
r -t 0.146168 -s 3 -d 2 -p cbr -e 210 -c 2 -i 12 -a 2 -x {3.0 2.0 12 ------- null}
+ -t 0.14875 -s 3 -d 2 -p cbr -e 210 -c 2 -i 13 -a 2 -x {3.0 2.0 13 ------- null}
- -t 0.14875 -s 3 -d 2 -p cbr -e 210 -c 2 -i 13 -a 2 -x {3.0 2.0 13 ------- null}
h -t 0.14875 -s 3 -d 2 -p cbr -e 210 -c 2 -i 13 -a 2 -x {3.0 2.0 -1 ------- null}
r -t 0.149918 -s 3 -d 2 -p cbr -e 210 -c 2 -i 13 -a 2 -x {3.0 2.0 13 ------- null}
+ -t 0.1525 -s 3 -d 2 -p cbr -e 210 -c 2 -i 14 -a 2 -x {3.0 2.0 14 ------- null}
- -t 0.1525 -s 3 -d 2 -p cbr -e 210 -c 2 -i 14 -a 2 -x {3.0 2.0 14 ------- null}
h -t 0.1525 -s 3 -d 2 -p cbr -e 210 -c 2 -i 14 -a 2 -x {3.0 2.0 -1 ------- null}
r -t 0.153668 -s 3 -d 2 -p cbr -e 210 -c 2 -i 14 -a 2 -x {3.0 2.0 14 ------- null}
+ -t 0.15625 -s 3 -d 2 -p cbr -e 210 -c 2 -i 15 -a 2 -x {3.0 2.0 15 ------- null}
- -t 0.15625 -s 3 -d 2 -p cbr -e 210 -c 2 -i 15 -a 2 -x {3.0 2.0 15 ------- null}
h -t 0.15625 -s 3 -d 2 -p cbr -e 210 -c 2 -i 15 -a 2 -x {3.0 2.0 -1 ------- null}
r -t 0.157418 -s 3 -d 2 -p cbr -e 210 -c 2 -i 15 -a 2 -x {3.0 2.0 15 ------- null}
+ -t 0.16 -s 3 -d 2 -p cbr -e 210 -c 2 -i 16 -a 2 -x {3.0 2.0 16 ------- null}
- -t 0.16 -s 3 -d 2 -p cbr -e 210 -c 2 -i 16 -a 2 -x {3.0 2.0 16 ------- null}
h -t 0.16 -s 3 -d 2 -p cbr -e 210 -c 2 -i 16 -a 2 -x {3.0 2.0 -1 ------- null}
r -t 0.161168 -s 3 -d 2 -p cbr -e 210 -c 2 -i 16 -a 2 -x {3.0 2.0 16 ------- null}
+ -t 0.16375 -s 3 -d 2 -p cbr -e 210 -c 2 -i 17 -a 2 -x {3.0 2.0 17 ------- null}
- -t 0.16375 -s 3 -d 2 -p cbr -e 210 -c 2 -i 17 -a 2 -x {3.0 2.0 17 ------- null}
h -t 0.16375 -s 3 -d 2 -p cbr -e 210 -c 2 -i 17 -a 2 -x {3.0 2.0 -1 ------- null}
r -t 0.164918 -s 3 -d 2 -p cbr -e 210 -c 2 -i 17 -a 2 -x {3.0 2.0 17 ------- null}
+ -t 0.1675 -s 3 -d 2 -p cbr -e 210 -c 2 -i 18 -a 2 -x {3.0 2.0 18 ------- null}
- -t 0.1675 -s 3 -d 2 -p cbr -e 210 -c 2 -i 18 -a 2 -x {3.0 2.0 18 ------- null}
h -t 0.1675 -s 3 -d 2 -p cbr -e 210 -c 2 -i 18 -a 2 -x {3.0 2.0 -1 ------- null}
r -t 0.168668 -s 3 -d 2 -p cbr -e 210 -c 2 -i 18 -a 2 -x {3.0 2.0 18 ------- null}
+ -t 0.17125 -s 3 -d 2 -p cbr -e 210 -c 2 -i 19 -a 2 -x {3.0 2.0 19 ------- null}
- -t 0.17125 -s 3 -d 2 -p cbr -e 210 -c 2 -i 19 -a 2 -x {3.0 2.0 19 ------- null}
h -t 0.17125 -s 3 -d 2 -p cbr -e 210 -c 2 -i 19 -a 2 -x {3.0 2.0 -1 ------- null}
r -t 0.172418 -s 3 -d 2 -p cbr -e 210 -c 2 -i 19 -a 2 -x {3.0 2.0 19 ------- null}
+ -t 0.175 -s 3 -d 2 -p cbr -e 210 -c 2 -i 20 -a 2 -x {3.0 2.0 20 ------- null}
- -t 0.175 -s 3 -d 2 -p cbr -e 210 -c 2 -i 20 -a 2 -x {3.0 2.0 20 ------- null}
h -t 0.175 -s 3 -d 2 -p cbr -e 210 -c 2 -i 20 -a 2 -x {3.0 2.0 -1 ------- null}
r -t 0.176168 -s 3 -d 2 -p cbr -e 210 -c 2 -i 20 -a 2 -x {3.0 2.0 20 ------- null}
+ -t 0.17875 -s 3 -d 2 -p cbr -e 210 -c 2 -i 21 -a 2 -x {3.0 2.0 21 ------- null}
- -t 0.17875 -s 3 -d 2 -p cbr -e 210 -c 2 -i 21 -a 2 -x {3.0 2.0 21 ------- null}
h -t 0.17875 -s 3 -d 2 -p cbr -e 210 -c 2 -i 21 -a 2 -x {3.0 2.0 -1 ------- null}
r -t 0.179918 -s 3 -d 2 -p cbr -e 210 -c 2 -i 21 -a 2 -x {3.0 2.0 21 ------- null}
+ -t 0.1825 -s 3 -d 2 -p cbr -e 210 -c 2 -i 22 -a 2 -x {3.0 2.0 22 ------- null}
- -t 0.1825 -s 3 -d 2 -p cbr -e 210 -c 2 -i 22 -a 2 -x {3.0 2.0 22 ------- null}
h -t 0.1825 -s 3 -d 2 -p cbr -e 210 -c 2 -i 22 -a 2 -x {3.0 2.0 -1 ------- null}
r -t 0.183668 -s 3 -d 2 -p cbr -e 210 -c 2 -i 22 -a 2 -x {3.0 2.0 22 ------- null}
+ -t 0.18625 -s 3 -d 2 -p cbr -e 210 -c 2 -i 23 -a 2 -x {3.0 2.0 23 ------- null}
- -t 0.18625 -s 3 -d 2 -p cbr -e 210 -c 2 -i 23 -a 2 -x {3.0 2.0 23 ------- null}
h -t 0.18625 -s 3 -d 2 -p cbr -e 210 -c 2 -i 23 -a 2 -x {3.0 2.0 -1 ------- null}
r -t 0.187418 -s 3 -d 2 -p cbr -e 210 -c 2 -i 23 -a 2 -x {3.0 2.0 23 ------- null}
+ -t 0.19 -s 3 -d 2 -p cbr -e 210 -c 2 -i 24 -a 2 -x {3.0 2.0 24 ------- null}
- -t 0.19 -s 3 -d 2 -p cbr -e 210 -c 2 -i 24 -a 2 -x {3.0 2.0 24 ------- null}
h -t 0.19 -s 3 -d 2 -p cbr -e 210 -c 2 -i 24 -a 2 -x {3.0 2.0 -1 ------- null}
r -t 0.191168 -s 3 -d 2 -p cbr -e 210 -c 2 -i 24 -a 2 -x {3.0 2.0 24 ------- null}
+ -t 0.19375 -s 3 -d 2 -p cbr -e 210 -c 2 -i 25 -a 2 -x {3.0 2.0 25 ------- null}
- -t 0.19375 -s 3 -d 2 -p cbr -e 210 -c 2 -i 25 -a 2 -x {3.0 2.0 25 ------- null}
h -t 0.19375 -s 3 -d 2 -p cbr -e 210 -c 2 -i 25 -a 2 -x {3.0 2.0 -1 ------- null}
r -t 0.194918 -s 3 -d 2 -p cbr -e 210 -c 2 -i 25 -a 2 -x {3.0 2.0 25 ------- null}
+ -t 0.1975 -s 3 -d 2 -p cbr -e 210 -c 2 -i 26 -a 2 -x {3.0 2.0 26 ------- null}
- -t 0.1975 -s 3 -d 2 -p cbr -e 210 -c 2 -i 26 -a 2 -x {3.0 2.0 26 ------- null}
h -t 0.1975 -s 3 -d 2 -p cbr -e 210 -c 2 -i 26 -a 2 -x {3.0 2.0 -1 ------- null}
r -t 0.198668 -s 3 -d 2 -p cbr -e 210 -c 2 -i 26 -a 2 -x {3.0 2.0 26 ------- null}
+ -t 0.2 -s 0 -d 4 -p tcp -e 40 -c 1 -i 27 -a 1 -x {0.0 4.0 0 ------- null}
- -t 0.2 -s 0 -d 4 -p tcp -e 40 -c 1 -i 27 -a 1 -x {0.0 4.0 0 ------- null}
h -t 0.2 -s 0 -d 4 -p tcp -e 40 -c 1 -i 27 -a 1 -x {0.0 4.0 -1 ------- null}
r -t 0.201032 -s 0 -d 4 -p tcp -e 40 -c 1 -i 27 -a 1 -x {0.0 4.0 0 ------- null}
+ -t 0.201032 -s 4 -d 0 -p ack -e 40 -c 1 -i 28 -a 1 -x {4.0 0.0 0 ------- null}
- -t 0.201032 -s 4 -d 0 -p ack -e 40 -c 1 -i 28 -a 1 -x {4.0 0.0 0 ------- null}
h -t 0.201032 -s 4 -d 0 -p ack -e 40 -c 1 -i 28 -a 1 -x {4.0 0.0 -1 ------- null}
+ -t 0.20125 -s 3 -d 2 -p cbr -e 210 -c 2 -i 29 -a 2 -x {3.0 2.0 27 ------- null}
- -t 0.20125 -s 3 -d 2 -p cbr -e 210 -c 2 -i 29 -a 2 -x {3.0 2.0 27 ------- null}
h -t 0.20125 -s 3 -d 2 -p cbr -e 210 -c 2 -i 29 -a 2 -x {3.0 2.0 -1 ------- null}
r -t 0.202064 -s 4 -d 0 -p ack -e 40 -c 1 -i 28 -a 1 -x {4.0 0.0 0 ------- null}
+ -t 0.202064 -s 0 -d 4 -p tcp -e 1040 -c 1 -i 30 -a 1 -x {0.0 4.0 1 ------- null}
- -t 0.202064 -s 0 -d 4 -p tcp -e 1040 -c 1 -i 30 -a 1 -x {0.0 4.0 1 ------- null}
h -t 0.202064 -s 0 -d 4 -p tcp -e 1040 -c 1 -i 30 -a 1 -x {0.0 4.0 -1 ------- null}
+ -t 0.202064 -s 0 -d 4 -p tcp -e 1040 -c 1 -i 31 -a 1 -x {0.0 4.0 2 ------- null}
r -t 0.202418 -s 3 -d 2 -p cbr -e 210 -c 2 -i 29 -a 2 -x {3.0 2.0 27 ------- null}
- -t 0.202896 -s 0 -d 4 -p tcp -e 1040 -c 1 -i 31 -a 1 -x {0.0 4.0 2 ------- null}
h -t 0.202896 -s 0 -d 4 -p tcp -e 1040 -c 1 -i 31 -a 1 -x {0.0 4.0 -1 ------- null}
r -t 0.203896 -s 0 -d 4 -p tcp -e 1040 -c 1 -i 30 -a 1 -x {0.0 4.0 1 ------- null}
+ -t 0.203896 -s 4 -d 0 -p ack -e 40 -c 1 -i 32 -a 1 -x {4.0 0.0 1 ------- null}
- -t 0.203896 -s 4 -d 0 -p ack -e 40 -c 1 -i 32 -a 1 -x {4.0 0.0 1 ------- null}
h -t 0.203896 -s 4 -d 0 -p ack -e 40 -c 1 -i 32 -a 1 -x {4.0 0.0 -1 ------- null}
r -t 0.204728 -s 0 -d 4 -p tcp -e 1040 -c 1 -i 31 -a 1 -x {0.0 4.0 2 ------- null}
+ -t 0.204728 -s 4 -d 0 -p ack -e 40 -c 1 -i 33 -a 1 -x {4.0 0.0 2 ------- null}
- -t 0.204728 -s 4 -d 0 -p ack -e 40 -c 1 -i 33 -a 1 -x {4.0 0.0 2 ------- null}
h -t 0.204728 -s 4 -d 0 -p ack -e 40 -c 1 -i 33 -a 1 -x {4.0 0.0 -1 ------- null}
r -t 0.204928 -s 4 -d 0 -p ack -e 40 -c 1 -i 32 -a 1 -x {4.0 0.0 1 ------- null}
+ -t 0.204928 -s 0 -d 4 -p tcp -e 1040 -c 1 -i 34 -a 1 -x {0.0 4.0 3 ------- null}
- -t 0.204928 -s 0 -d 4 -p tcp -e 1040 -c 1 -i 34 -a 1 -x {0.0 4.0 3 ------- null}
h -t 0.204928 -s 0 -d 4 -p tcp -e 1040 -c 1 -i 34 -a 1 -x {0.0 4.0 -1 ------- null}
+ -t 0.204928 -s 0 -d 4 -p tcp -e 1040 -c 1 -i 35 -a 1 -x {0.0 4.0 4 ------- null}
+ -t 0.205 -s 3 -d 2 -p cbr -e 210 -c 2 -i 36 -a 2 -x {3.0 2.0 28 ------- null}
- -t 0.205 -s 3 -d 2 -p cbr -e 210 -c 2 -i 36 -a 2 -x {3.0 2.0 28 ------- null}
h -t 0.205 -s 3 -d 2 -p cbr -e 210 -c 2 -i 36 -a 2 -x {3.0 2.0 -1 ------- null}
r -t 0.20576 -s 4 -d 0 -p ack -e 40 -c 1 -i 33 -a 1 -x {4.0 0.0 2 ------- null}
+ -t 0.20576 -s 0 -d 4 -p tcp -e 1040 -c 1 -i 37 -a 1 -x {0.0 4.0 5 ------- null}
+ -t 0.20576 -s 0 -d 4 -p tcp -e 1040 -c 1 -i 38 -a 1 -x {0.0 4.0 6 ------- null}
- -t 0.20576 -s 0 -d 4 -p tcp -e 1040 -c 1 -i 35 -a 1 -x {0.0 4.0 4 ------- null}
h -t 0.20576 -s 0 -d 4 -p tcp -e 1040 -c 1 -i 35 -a 1 -x {0.0 4.0 -1 ------- null}
r -t 0.206168 -s 3 -d 2 -p cbr -e 210 -c 2 -i 36 -a 2 -x {3.0 2.0 28 ------- null}
- -t 0.206592 -s 0 -d 4 -p tcp -e 1040 -c 1 -i 37 -a 1 -x {0.0 4.0 5 ------- null}
h -t 0.206592 -s 0 -d 4 -p tcp -e 1040 -c 1 -i 37 -a 1 -x {0.0 4.0 -1 ------- null}
r -t 0.20676 -s 0 -d 4 -p tcp -e 1040 -c 1 -i 34 -a 1 -x {0.0 4.0 3 ------- null}
+ -t 0.20676 -s 4 -d 0 -p ack -e 40 -c 1 -i 39 -a 1 -x {4.0 0.0 3 ------- null}
- -t 0.20676 -s 4 -d 0 -p ack -e 40 -c 1 -i 39 -a 1 -x {4.0 0.0 3 ------- null}
h -t 0.20676 -s 4 -d 0 -p ack -e 40 -c 1 -i 39 -a 1 -x {4.0 0.0 -1 ------- null}
- -t 0.207424 -s 0 -d 4 -p tcp -e 1040 -c 1 -i 38 -a 1 -x {0.0 4.0 6 ------- null}
h -t 0.207424 -s 0 -d 4 -p tcp -e 1040 -c 1 -i 38 -a 1 -x {0.0 4.0 -1 ------- null}
r -t 0.207592 -s 0 -d 4 -p tcp -e 1040 -c 1 -i 35 -a 1 -x {0.0 4.0 4 ------- null}
+ -t 0.207592 -s 4 -d 0 -p ack -e 40 -c 1 -i 40 -a 1 -x {4.0 0.0 4 ------- null}
- -t 0.207592 -s 4 -d 0 -p ack -e 40 -c 1 -i 40 -a 1 -x {4.0 0.0 4 ------- null}
h -t 0.207592 -s 4 -d 0 -p ack -e 40 -c 1 -i 40 -a 1 -x {4.0 0.0 -1 ------- null}
r -t 0.207792 -s 4 -d 0 -p ack -e 40 -c 1 -i 39 -a 1 -x {4.0 0.0 3 ------- null}
+ -t 0.207792 -s 0 -d 4 -p tcp -e 1040 -c 1 -i 41 -a 1 -x {0.0 4.0 7 ------- null}
+ -t 0.207792 -s 0 -d 4 -p tcp -e 1040 -c 1 -i 42 -a 1 -x {0.0 4.0 8 ------- null}
- -t 0.208256 -s 0 -d 4 -p tcp -e 1040 -c 1 -i 41 -a 1 -x {0.0 4.0 7 ------- null}
h -t 0.208256 -s 0 -d 4 -p tcp -e 1040 -c 1 -i 41 -a 1 -x {0.0 4.0 -1 ------- null}
r -t 0.208424 -s 0 -d 4 -p tcp -e 1040 -c 1 -i 37 -a 1 -x {0.0 4.0 5 ------- null}
+ -t 0.208424 -s 4 -d 0 -p ack -e 40 -c 1 -i 43 -a 1 -x {4.0 0.0 5 ------- null}
- -t 0.208424 -s 4 -d 0 -p ack -e 40 -c 1 -i 43 -a 1 -x {4.0 0.0 5 ------- null}
h -t 0.208424 -s 4 -d 0 -p ack -e 40 -c 1 -i 43 -a 1 -x {4.0 0.0 -1 ------- null}
r -t 0.208624 -s 4 -d 0 -p ack -e 40 -c 1 -i 40 -a 1 -x {4.0 0.0 4 ------- null}
+ -t 0.208624 -s 0 -d 4 -p tcp -e 1040 -c 1 -i 44 -a 1 -x {0.0 4.0 9 ------- null}
+ -t 0.208624 -s 0 -d 4 -p tcp -e 1040 -c 1 -i 45 -a 1 -x {0.0 4.0 10 ------- null}
+ -t 0.20875 -s 3 -d 2 -p cbr -e 210 -c 2 -i 46 -a 2 -x {3.0 2.0 29 ------- null}
- -t 0.20875 -s 3 -d 2 -p cbr -e 210 -c 2 -i 46 -a 2 -x {3.0 2.0 29 ------- null}
h -t 0.20875 -s 3 -d 2 -p cbr -e 210 -c 2 -i 46 -a 2 -x {3.0 2.0 -1 ------- null}
- -t 0.209088 -s 0 -d 4 -p tcp -e 1040 -c 1 -i 42 -a 1 -x {0.0 4.0 8 ------- null}
h -t 0.209088 -s 0 -d 4 -p tcp -e 1040 -c 1 -i 42 -a 1 -x {0.0 4.0 -1 ------- null}
r -t 0.209256 -s 0 -d 4 -p tcp -e 1040 -c 1 -i 38 -a 1 -x {0.0 4.0 6 ------- null}
+ -t 0.209256 -s 4 -d 0 -p ack -e 40 -c 1 -i 47 -a 1 -x {4.0 0.0 6 ------- null}
- -t 0.209256 -s 4 -d 0 -p ack -e 40 -c 1 -i 47 -a 1 -x {4.0 0.0 6 ------- null}
h -t 0.209256 -s 4 -d 0 -p ack -e 40 -c 1 -i 47 -a 1 -x {4.0 0.0 -1 ------- null}
r -t 0.209456 -s 4 -d 0 -p ack -e 40 -c 1 -i 43 -a 1 -x {4.0 0.0 5 ------- null}
+ -t 0.209456 -s 0 -d 4 -p tcp -e 1040 -c 1 -i 48 -a 1 -x {0.0 4.0 11 ------- null}
+ -t 0.209456 -s 0 -d 4 -p tcp -e 1040 -c 1 -i 49 -a 1 -x {0.0 4.0 12 ------- null}
r -t 0.209918 -s 3 -d 2 -p cbr -e 210 -c 2 -i 46 -a 2 -x {3.0 2.0 29 ------- null}
- -t 0.20992 -s 0 -d 4 -p tcp -e 1040 -c 1 -i 44 -a 1 -x {0.0 4.0 9 ------- null}
h -t 0.20992 -s 0 -d 4 -p tcp -e 1040 -c 1 -i 44 -a 1 -x {0.0 4.0 -1 ------- null}
r -t 0.210088 -s 0 -d 4 -p tcp -e 1040 -c 1 -i 41 -a 1 -x {0.0 4.0 7 ------- null}
+ -t 0.210088 -s 4 -d 0 -p ack -e 40 -c 1 -i 50 -a 1 -x {4.0 0.0 7 ------- null}
- -t 0.210088 -s 4 -d 0 -p ack -e 40 -c 1 -i 50 -a 1 -x {4.0 0.0 7 ------- null}
h -t 0.210088 -s 4 -d 0 -p ack -e 40 -c 1 -i 50 -a 1 -x {4.0 0.0 -1 ------- null}
r -t 0.210288 -s 4 -d 0 -p ack -e 40 -c 1 -i 47 -a 1 -x {4.0 0.0 6 ------- null}
+ -t 0.210288 -s 0 -d 4 -p tcp -e 1040 -c 1 -i 51 -a 1 -x {0.0 4.0 13 ------- null}
+ -t 0.210288 -s 0 -d 4 -p tcp -e 1040 -c 1 -i 52 -a 1 -x {0.0 4.0 14 ------- null}
- -t 0.210752 -s 0 -d 4 -p tcp -e 1040 -c 1 -i 45 -a 1 -x {0.0 4.0 10 ------- null}
h -t 0.210752 -s 0 -d 4 -p tcp -e 1040 -c 1 -i 45 -a 1 -x {0.0 4.0 -1 ------- null}
r -t 0.21092 -s 0 -d 4 -p tcp -e 1040 -c 1 -i 42 -a 1 -x {0.0 4.0 8 ------- null}
+ -t 0.21092 -s 4 -d 0 -p ack -e 40 -c 1 -i 53 -a 1 -x {4.0 0.0 8 ------- null}
- -t 0.21092 -s 4 -d 0 -p ack -e 40 -c 1 -i 53 -a 1 -x {4.0 0.0 8 ------- null}
h -t 0.21092 -s 4 -d 0 -p ack -e 40 -c 1 -i 53 -a 1 -x {4.0 0.0 -1 ------- null}
r -t 0.21112 -s 4 -d 0 -p ack -e 40 -c 1 -i 50 -a 1 -x {4.0 0.0 7 ------- null}
+ -t 0.21112 -s 0 -d 4 -p tcp -e 1040 -c 1 -i 54 -a 1 -x {0.0 4.0 15 ------- null}
+ -t 0.21112 -s 0 -d 4 -p tcp -e 1040 -c 1 -i 55 -a 1 -x {0.0 4.0 16 ------- null}
- -t 0.211584 -s 0 -d 4 -p tcp -e 1040 -c 1 -i 48 -a 1 -x {0.0 4.0 11 ------- null}
h -t 0.211584 -s 0 -d 4 -p tcp -e 1040 -c 1 -i 48 -a 1 -x {0.0 4.0 -1 ------- null}
r -t 0.211752 -s 0 -d 4 -p tcp -e 1040 -c 1 -i 44 -a 1 -x {0.0 4.0 9 ------- null}
+ -t 0.211752 -s 4 -d 0 -p ack -e 40 -c 1 -i 56 -a 1 -x {4.0 0.0 9 ------- null}
- -t 0.211752 -s 4 -d 0 -p ack -e 40 -c 1 -i 56 -a 1 -x {4.0 0.0 9 ------- null}
h -t 0.211752 -s 4 -d 0 -p ack -e 40 -c 1 -i 56 -a 1 -x {4.0 0.0 -1 ------- null}
r -t 0.211952 -s 4 -d 0 -p ack -e 40 -c 1 -i 53 -a 1 -x {4.0 0.0 8 ------- null}
+ -t 0.211952 -s 0 -d 4 -p tcp -e 1040 -c 1 -i 57 -a 1 -x {0.0 4.0 17 ------- null}
+ -t 0.211952 -s 0 -d 4 -p tcp -e 1040 -c 1 -i 58 -a 1 -x {0.0 4.0 18 ------- null}
- -t 0.212416 -s 0 -d 4 -p tcp -e 1040 -c 1 -i 49 -a 1 -x {0.0 4.0 12 ------- null}
h -t 0.212416 -s 0 -d 4 -p tcp -e 1040 -c 1 -i 49 -a 1 -x {0.0 4.0 -1 ------- null}
+ -t 0.2125 -s 3 -d 2 -p cbr -e 210 -c 2 -i 59 -a 2 -x {3.0 2.0 30 ------- null}
- -t 0.2125 -s 3 -d 2 -p cbr -e 210 -c 2 -i 59 -a 2 -x {3.0 2.0 30 ------- null}
h -t 0.2125 -s 3 -d 2 -p cbr -e 210 -c 2 -i 59 -a 2 -x {3.0 2.0 -1 ------- null}
r -t 0.212584 -s 0 -d 4 -p tcp -e 1040 -c 1 -i 45 -a 1 -x {0.0 4.0 10 ------- null}
+ -t 0.212584 -s 4 -d 0 -p ack -e 40 -c 1 -i 60 -a 1 -x {4.0 0.0 10 ------- null}
- -t 0.212584 -s 4 -d 0 -p ack -e 40 -c 1 -i 60 -a 1 -x {4.0 0.0 10 ------- null}
h -t 0.212584 -s 4 -d 0 -p ack -e 40 -c 1 -i 60 -a 1 -x {4.0 0.0 -1 ------- null}
r -t 0.212784 -s 4 -d 0 -p ack -e 40 -c 1 -i 56 -a 1 -x {4.0 0.0 9 ------- null}
+ -t 0.212784 -s 0 -d 4 -p tcp -e 1040 -c 1 -i 61 -a 1 -x {0.0 4.0 19 ------- null}
+ -t 0.212784 -s 0 -d 4 -p tcp -e 1040 -c 1 -i 62 -a 1 -x {0.0 4.0 20 ------- null}
- -t 0.213248 -s 0 -d 4 -p tcp -e 1040 -c 1 -i 51 -a 1 -x {0.0 4.0 13 ------- null}
h -t 0.213248 -s 0 -d 4 -p tcp -e 1040 -c 1 -i 51 -a 1 -x {0.0 4.0 -1 ------- null}
r -t 0.213416 -s 0 -d 4 -p tcp -e 1040 -c 1 -i 48 -a 1 -x {0.0 4.0 11 ------- null}
+ -t 0.213416 -s 4 -d 0 -p ack -e 40 -c 1 -i 63 -a 1 -x {4.0 0.0 11 ------- null}
- -t 0.213416 -s 4 -d 0 -p ack -e 40 -c 1 -i 63 -a 1 -x {4.0 0.0 11 ------- null}
h -t 0.213416 -s 4 -d 0 -p ack -e 40 -c 1 -i 63 -a 1 -x {4.0 0.0 -1 ------- null}
r -t 0.213616 -s 4 -d 0 -p ack -e 40 -c 1 -i 60 -a 1 -x {4.0 0.0 10 ------- null}
+ -t 0.213616 -s 0 -d 4 -p tcp -e 1040 -c 1 -i 64 -a 1 -x {0.0 4.0 21 ------- null}
+ -t 0.213616 -s 0 -d 4 -p tcp -e 1040 -c 1 -i 65 -a 1 -x {0.0 4.0 22 ------- null}
r -t 0.213668 -s 3 -d 2 -p cbr -e 210 -c 2 -i 59 -a 2 -x {3.0 2.0 30 ------- null}
- -t 0.21408 -s 0 -d 4 -p tcp -e 1040 -c 1 -i 52 -a 1 -x {0.0 4.0 14 ------- null}
h -t 0.21408 -s 0 -d 4 -p tcp -e 1040 -c 1 -i 52 -a 1 -x {0.0 4.0 -1 ------- null}
r -t 0.214248 -s 0 -d 4 -p tcp -e 1040 -c 1 -i 49 -a 1 -x {0.0 4.0 12 ------- null}
+ -t 0.214248 -s 4 -d 0 -p ack -e 40 -c 1 -i 66 -a 1 -x {4.0 0.0 12 ------- null}
- -t 0.214248 -s 4 -d 0 -p ack -e 40 -c 1 -i 66 -a 1 -x {4.0 0.0 12 ------- null}
h -t 0.214248 -s 4 -d 0 -p ack -e 40 -c 1 -i 66 -a 1 -x {4.0 0.0 -1 ------- null}
r -t 0.214448 -s 4 -d 0 -p ack -e 40 -c 1 -i 63 -a 1 -x {4.0 0.0 11 ------- null}
+ -t 0.214448 -s 0 -d 4 -p tcp -e 1040 -c 1 -i 67 -a 1 -x {0.0 4.0 23 ------- null}
+ -t 0.214448 -s 0 -d 4 -p tcp -e 1040 -c 1 -i 68 -a 1 -x {0.0 4.0 24 ------- null}
- -t 0.214912 -s 0 -d 4 -p tcp -e 1040 -c 1 -i 54 -a 1 -x {0.0 4.0 15 ------- null}
h -t 0.214912 -s 0 -d 4 -p tcp -e 1040 -c 1 -i 54 -a 1 -x {0.0 4.0 -1 ------- null}
r -t 0.21508 -s 0 -d 4 -p tcp -e 1040 -c 1 -i 51 -a 1 -x {0.0 4.0 13 ------- null}
+ -t 0.21508 -s 4 -d 0 -p ack -e 40 -c 1 -i 69 -a 1 -x {4.0 0.0 13 ------- null}
- -t 0.21508 -s 4 -d 0 -p ack -e 40 -c 1 -i 69 -a 1 -x {4.0 0.0 13 ------- null}
h -t 0.21508 -s 4 -d 0 -p ack -e 40 -c 1 -i 69 -a 1 -x {4.0 0.0 -1 ------- null}
r -t 0.21528 -s 4 -d 0 -p ack -e 40 -c 1 -i 66 -a 1 -x {4.0 0.0 12 ------- null}
+ -t 0.21528 -s 0 -d 4 -p tcp -e 1040 -c 1 -i 70 -a 1 -x {0.0 4.0 25 ------- null}
+ -t 0.21528 -s 0 -d 4 -p tcp -e 1040 -c 1 -i 71 -a 1 -x {0.0 4.0 26 ------- null}
- -t 0.215744 -s 0 -d 4 -p tcp -e 1040 -c 1 -i 55 -a 1 -x {0.0 4.0 16 ------- null}
h -t 0.215744 -s 0 -d 4 -p tcp -e 1040 -c 1 -i 55 -a 1 -x {0.0 4.0 -1 ------- null}
r -t 0.215912 -s 0 -d 4 -p tcp -e 1040 -c 1 -i 52 -a 1 -x {0.0 4.0 14 ------- null}
+ -t 0.215912 -s 4 -d 0 -p ack -e 40 -c 1 -i 72 -a 1 -x {4.0 0.0 14 ------- null}
- -t 0.215912 -s 4 -d 0 -p ack -e 40 -c 1 -i 72 -a 1 -x {4.0 0.0 14 ------- null}
h -t 0.215912 -s 4 -d 0 -p ack -e 40 -c 1 -i 72 -a 1 -x {4.0 0.0 -1 ------- null}
r -t 0.216112 -s 4 -d 0 -p ack -e 40 -c 1 -i 69 -a 1 -x {4.0 0.0 13 ------- null}
+ -t 0.216112 -s 0 -d 4 -p tcp -e 1040 -c 1 -i 73 -a 1 -x {0.0 4.0 27 ------- null}
+ -t 0.216112 -s 0 -d 4 -p tcp -e 1040 -c 1 -i 74 -a 1 -x {0.0 4.0 28 ------- null}
+ -t 0.21625 -s 3 -d 2 -p cbr -e 210 -c 2 -i 75 -a 2 -x {3.0 2.0 31 ------- null}
- -t 0.21625 -s 3 -d 2 -p cbr -e 210 -c 2 -i 75 -a 2 -x {3.0 2.0 31 ------- null}
h -t 0.21625 -s 3 -d 2 -p cbr -e 210 -c 2 -i 75 -a 2 -x {3.0 2.0 -1 ------- null}
- -t 0.216576 -s 0 -d 4 -p tcp -e 1040 -c 1 -i 57 -a 1 -x {0.0 4.0 17 ------- null}
h -t 0.216576 -s 0 -d 4 -p tcp -e 1040 -c 1 -i 57 -a 1 -x {0.0 4.0 -1 ------- null}
r -t 0.216744 -s 0 -d 4 -p tcp -e 1040 -c 1 -i 54 -a 1 -x {0.0 4.0 15 ------- null}
+ -t 0.216744 -s 4 -d 0 -p ack -e 40 -c 1 -i 76 -a 1 -x {4.0 0.0 15 ------- null}
- -t 0.216744 -s 4 -d 0 -p ack -e 40 -c 1 -i 76 -a 1 -x {4.0 0.0 15 ------- null}
h -t 0.216744 -s 4 -d 0 -p ack -e 40 -c 1 -i 76 -a 1 -x {4.0 0.0 -1 ------- null}
r -t 0.216944 -s 4 -d 0 -p ack -e 40 -c 1 -i 72 -a 1 -x {4.0 0.0 14 ------- null}
+ -t 0.216944 -s 0 -d 4 -p tcp -e 1040 -c 1 -i 77 -a 1 -x {0.0 4.0 29 ------- null}
+ -t 0.216944 -s 0 -d 4 -p tcp -e 1040 -c 1 -i 78 -a 1 -x {0.0 4.0 30 ------- null}
- -t 0.217408 -s 0 -d 4 -p tcp -e 1040 -c 1 -i 58 -a 1 -x {0.0 4.0 18 ------- null}
h -t 0.217408 -s 0 -d 4 -p tcp -e 1040 -c 1 -i 58 -a 1 -x {0.0 4.0 -1 ------- null}
r -t 0.217418 -s 3 -d 2 -p cbr -e 210 -c 2 -i 75 -a 2 -x {3.0 2.0 31 ------- null}
r -t 0.217576 -s 0 -d 4 -p tcp -e 1040 -c 1 -i 55 -a 1 -x {0.0 4.0 16 ------- null}
+ -t 0.217576 -s 4 -d 0 -p ack -e 40 -c 1 -i 79 -a 1 -x {4.0 0.0 16 ------- null}
- -t 0.217576 -s 4 -d 0 -p ack -e 40 -c 1 -i 79 -a 1 -x {4.0 0.0 16 ------- null}
h -t 0.217576 -s 4 -d 0 -p ack -e 40 -c 1 -i 79 -a 1 -x {4.0 0.0 -1 ------- null}
r -t 0.217776 -s 4 -d 0 -p ack -e 40 -c 1 -i 76 -a 1 -x {4.0 0.0 15 ------- null}
+ -t 0.217776 -s 0 -d 4 -p tcp -e 1040 -c 1 -i 80 -a 1 -x {0.0 4.0 31 ------- null}
+ -t 0.217776 -s 0 -d 4 -p tcp -e 1040 -c 1 -i 81 -a 1 -x {0.0 4.0 32 ------- null}
- -t 0.21824 -s 0 -d 4 -p tcp -e 1040 -c 1 -i 61 -a 1 -x {0.0 4.0 19 ------- null}
h -t 0.21824 -s 0 -d 4 -p tcp -e 1040 -c 1 -i 61 -a 1 -x {0.0 4.0 -1 ------- null}
r -t 0.218408 -s 0 -d 4 -p tcp -e 1040 -c 1 -i 57 -a 1 -x {0.0 4.0 17 ------- null}
+ -t 0.218408 -s 4 -d 0 -p ack -e 40 -c 1 -i 82 -a 1 -x {4.0 0.0 17 ------- null}
- -t 0.218408 -s 4 -d 0 -p ack -e 40 -c 1 -i 82 -a 1 -x {4.0 0.0 17 ------- null}
h -t 0.218408 -s 4 -d 0 -p ack -e 40 -c 1 -i 82 -a 1 -x {4.0 0.0 -1 ------- null}
r -t 0.218608 -s 4 -d 0 -p ack -e 40 -c 1 -i 79 -a 1 -x {4.0 0.0 16 ------- null}
+ -t 0.218608 -s 0 -d 4 -p tcp -e 1040 -c 1 -i 83 -a 1 -x {0.0 4.0 33 ------- null}
+ -t 0.218608 -s 0 -d 4 -p tcp -e 1040 -c 1 -i 84 -a 1 -x {0.0 4.0 34 ------- null}
- -t 0.219072 -s 0 -d 4 -p tcp -e 1040 -c 1 -i 62 -a 1 -x {0.0 4.0 20 ------- null}
h -t 0.219072 -s 0 -d 4 -p tcp -e 1040 -c 1 -i 62 -a 1 -x {0.0 4.0 -1 ------- null}
r -t 0.21924 -s 0 -d 4 -p tcp -e 1040 -c 1 -i 58 -a 1 -x {0.0 4.0 18 ------- null}
+ -t 0.21924 -s 4 -d 0 -p ack -e 40 -c 1 -i 85 -a 1 -x {4.0 0.0 18 ------- null}
- -t 0.21924 -s 4 -d 0 -p ack -e 40 -c 1 -i 85 -a 1 -x {4.0 0.0 18 ------- null}
h -t 0.21924 -s 4 -d 0 -p ack -e 40 -c 1 -i 85 -a 1 -x {4.0 0.0 -1 ------- null}
r -t 0.21944 -s 4 -d 0 -p ack -e 40 -c 1 -i 82 -a 1 -x {4.0 0.0 17 ------- null}
+ -t 0.21944 -s 0 -d 4 -p tcp -e 1040 -c 1 -i 86 -a 1 -x {0.0 4.0 35 ------- null}
+ -t 0.21944 -s 0 -d 4 -p tcp -e 1040 -c 1 -i 87 -a 1 -x {0.0 4.0 36 ------- null}
- -t 0.219904 -s 0 -d 4 -p tcp -e 1040 -c 1 -i 64 -a 1 -x {0.0 4.0 21 ------- null}
h -t 0.219904 -s 0 -d 4 -p tcp -e 1040 -c 1 -i 64 -a 1 -x {0.0 4.0 -1 ------- null}
+ -t 0.22 -s 3 -d 2 -p cbr -e 210 -c 2 -i 88 -a 2 -x {3.0 2.0 32 ------- null}
- -t 0.22 -s 3 -d 2 -p cbr -e 210 -c 2 -i 88 -a 2 -x {3.0 2.0 32 ------- null}
h -t 0.22 -s 3 -d 2 -p cbr -e 210 -c 2 -i 88 -a 2 -x {3.0 2.0 -1 ------- null}
r -t 0.220072 -s 0 -d 4 -p tcp -e 1040 -c 1 -i 61 -a 1 -x {0.0 4.0 19 ------- null}
+ -t 0.220072 -s 4 -d 0 -p ack -e 40 -c 1 -i 89 -a 1 -x {4.0 0.0 19 ------- null}
- -t 0.220072 -s 4 -d 0 -p ack -e 40 -c 1 -i 89 -a 1 -x {4.0 0.0 19 ------- null}
h -t 0.220072 -s 4 -d 0 -p ack -e 40 -c 1 -i 89 -a 1 -x {4.0 0.0 -1 ------- null}
r -t 0.220272 -s 4 -d 0 -p ack -e 40 -c 1 -i 85 -a 1 -x {4.0 0.0 18 ------- null}
+ -t 0.220272 -s 0 -d 4 -p tcp -e 1040 -c 1 -i 90 -a 1 -x {0.0 4.0 37 ------- null}
+ -t 0.220272 -s 0 -d 4 -p tcp -e 1040 -c 1 -i 91 -a 1 -x {0.0 4.0 38 ------- null}
- -t 0.220736 -s 0 -d 4 -p tcp -e 1040 -c 1 -i 65 -a 1 -x {0.0 4.0 22 ------- null}
h -t 0.220736 -s 0 -d 4 -p tcp -e 1040 -c 1 -i 65 -a 1 -x {0.0 4.0 -1 ------- null}
r -t 0.220904 -s 0 -d 4 -p tcp -e 1040 -c 1 -i 62 -a 1 -x {0.0 4.0 20 ------- null}
+ -t 0.220904 -s 4 -d 0 -p ack -e 40 -c 1 -i 92 -a 1 -x {4.0 0.0 20 ------- null}
- -t 0.220904 -s 4 -d 0 -p ack -e 40 -c 1 -i 92 -a 1 -x {4.0 0.0 20 ------- null}
h -t 0.220904 -s 4 -d 0 -p ack -e 40 -c 1 -i 92 -a 1 -x {4.0 0.0 -1 ------- null}
r -t 0.221104 -s 4 -d 0 -p ack -e 40 -c 1 -i 89 -a 1 -x {4.0 0.0 19 ------- null}
+ -t 0.221104 -s 0 -d 4 -p tcp -e 1040 -c 1 -i 93 -a 1 -x {0.0 4.0 39 ------- null}
r -t 0.221168 -s 3 -d 2 -p cbr -e 210 -c 2 -i 88 -a 2 -x {3.0 2.0 32 ------- null}
- -t 0.221568 -s 0 -d 4 -p tcp -e 1040 -c 1 -i 67 -a 1 -x {0.0 4.0 23 ------- null}
h -t 0.221568 -s 0 -d 4 -p tcp -e 1040 -c 1 -i 67 -a 1 -x {0.0 4.0 -1 ------- null}
r -t 0.221736 -s 0 -d 4 -p tcp -e 1040 -c 1 -i 64 -a 1 -x {0.0 4.0 21 ------- null}
+ -t 0.221736 -s 4 -d 0 -p ack -e 40 -c 1 -i 94 -a 1 -x {4.0 0.0 21 ------- null}
- -t 0.221736 -s 4 -d 0 -p ack -e 40 -c 1 -i 94 -a 1 -x {4.0 0.0 21 ------- null}
h -t 0.221736 -s 4 -d 0 -p ack -e 40 -c 1 -i 94 -a 1 -x {4.0 0.0 -1 ------- null}
r -t 0.221936 -s 4 -d 0 -p ack -e 40 -c 1 -i 92 -a 1 -x {4.0 0.0 20 ------- null}
+ -t 0.221936 -s 0 -d 4 -p tcp -e 1040 -c 1 -i 95 -a 1 -x {0.0 4.0 40 ------- null}
- -t 0.2224 -s 0 -d 4 -p tcp -e 1040 -c 1 -i 68 -a 1 -x {0.0 4.0 24 ------- null}
h -t 0.2224 -s 0 -d 4 -p tcp -e 1040 -c 1 -i 68 -a 1 -x {0.0 4.0 -1 ------- null}
r -t 0.222568 -s 0 -d 4 -p tcp -e 1040 -c 1 -i 65 -a 1 -x {0.0 4.0 22 ------- null}
+ -t 0.222568 -s 4 -d 0 -p ack -e 40 -c 1 -i 96 -a 1 -x {4.0 0.0 22 ------- null}
- -t 0.222568 -s 4 -d 0 -p ack -e 40 -c 1 -i 96 -a 1 -x {4.0 0.0 22 ------- null}
h -t 0.222568 -s 4 -d 0 -p ack -e 40 -c 1 -i 96 -a 1 -x {4.0 0.0 -1 ------- null}
r -t 0.222768 -s 4 -d 0 -p ack -e 40 -c 1 -i 94 -a 1 -x {4.0 0.0 21 ------- null}
+ -t 0.222768 -s 0 -d 4 -p tcp -e 1040 -c 1 -i 97 -a 1 -x {0.0 4.0 41 ------- null}
- -t 0.223232 -s 0 -d 4 -p tcp -e 1040 -c 1 -i 70 -a 1 -x {0.0 4.0 25 ------- null}
h -t 0.223232 -s 0 -d 4 -p tcp -e 1040 -c 1 -i 70 -a 1 -x {0.0 4.0 -1 ------- null}
r -t 0.2234 -s 0 -d 4 -p tcp -e 1040 -c 1 -i 67 -a 1 -x {0.0 4.0 23 ------- null}
+ -t 0.2234 -s 4 -d 0 -p ack -e 40 -c 1 -i 98 -a 1 -x {4.0 0.0 23 ------- null}
- -t 0.2234 -s 4 -d 0 -p ack -e 40 -c 1 -i 98 -a 1 -x {4.0 0.0 23 ------- null}
h -t 0.2234 -s 4 -d 0 -p ack -e 40 -c 1 -i 98 -a 1 -x {4.0 0.0 -1 ------- null}
r -t 0.2236 -s 4 -d 0 -p ack -e 40 -c 1 -i 96 -a 1 -x {4.0 0.0 22 ------- null}
+ -t 0.2236 -s 0 -d 4 -p tcp -e 1040 -c 1 -i 99 -a 1 -x {0.0 4.0 42 ------- null}
+ -t 0.22375 -s 3 -d 2 -p cbr -e 210 -c 2 -i 100 -a 2 -x {3.0 2.0 33 ------- null}
- -t 0.22375 -s 3 -d 2 -p cbr -e 210 -c 2 -i 100 -a 2 -x {3.0 2.0 33 ------- null}
h -t 0.22375 -s 3 -d 2 -p cbr -e 210 -c 2 -i 100 -a 2 -x {3.0 2.0 -1 ------- null}
- -t 0.224064 -s 0 -d 4 -p tcp -e 1040 -c 1 -i 71 -a 1 -x {0.0 4.0 26 ------- null}
h -t 0.224064 -s 0 -d 4 -p tcp -e 1040 -c 1 -i 71 -a 1 -x {0.0 4.0 -1 ------- null}
r -t 0.224232 -s 0 -d 4 -p tcp -e 1040 -c 1 -i 68 -a 1 -x {0.0 4.0 24 ------- null}
+ -t 0.224232 -s 4 -d 0 -p ack -e 40 -c 1 -i 101 -a 1 -x {4.0 0.0 24 ------- null}