+ 0.1 3 2 cbr 210 ------- 2 3.0 2.0 0 0
- 0.1 3 2 cbr 210 ------- 2 3.0 2.0 0 0
r 0.101168 3 2 cbr 210 ------- 2 3.0 2.0 0 0
+ 0.10375 3 2 cbr 210 ------- 2 3.0 2.0 1 1
- 0.10375 3 2 cbr 210 ------- 2 3.0 2.0 1 1
r 0.104918 3 2 cbr 210 ------- 2 3.0 2.0 1 1
+ 0.1075 3 2 cbr 210 ------- 2 3.0 2.0 2 2
- 0.1075 3 2 cbr 210 ------- 2 3.0 2.0 2 2
r 0.108668 3 2 cbr 210 ------- 2 3.0 2.0 2 2
+ 0.11125 3 2 cbr 210 ------- 2 3.0 2.0 3 3
- 0.11125 3 2 cbr 210 ------- 2 3.0 2.0 3 3
r 0.112418 3 2 cbr 210 ------- 2 3.0 2.0 3 3
+ 0.115 3 2 cbr 210 ------- 2 3.0 2.0 4 4
- 0.115 3 2 cbr 210 ------- 2 3.0 2.0 4 4
r 0.116168 3 2 cbr 210 ------- 2 3.0 2.0 4 4
+ 0.11875 3 2 cbr 210 ------- 2 3.0 2.0 5 5
- 0.11875 3 2 cbr 210 ------- 2 3.0 2.0 5 5
r 0.119918 3 2 cbr 210 ------- 2 3.0 2.0 5 5
+ 0.1225 3 2 cbr 210 ------- 2 3.0 2.0 6 6
- 0.1225 3 2 cbr 210 ------- 2 3.0 2.0 6 6
r 0.123668 3 2 cbr 210 ------- 2 3.0 2.0 6 6
+ 0.12625 3 2 cbr 210 ------- 2 3.0 2.0 7 7
- 0.12625 3 2 cbr 210 ------- 2 3.0 2.0 7 7
r 0.127418 3 2 cbr 210 ------- 2 3.0 2.0 7 7
+ 0.13 3 2 cbr 210 ------- 2 3.0 2.0 8 8
- 0.13 3 2 cbr 210 ------- 2 3.0 2.0 8 8
r 0.131168 3 2 cbr 210 ------- 2 3.0 2.0 8 8
+ 0.13375 3 2 cbr 210 ------- 2 3.0 2.0 9 9
- 0.13375 3 2 cbr 210 ------- 2 3.0 2.0 9 9
r 0.134918 3 2 cbr 210 ------- 2 3.0 2.0 9 9
+ 0.1375 3 2 cbr 210 ------- 2 3.0 2.0 10 10
- 0.1375 3 2 cbr 210 ------- 2 3.0 2.0 10 10
r 0.138668 3 2 cbr 210 ------- 2 3.0 2.0 10 10
+ 0.14125 3 2 cbr 210 ------- 2 3.0 2.0 11 11
- 0.14125 3 2 cbr 210 ------- 2 3.0 2.0 11 11
r 0.142418 3 2 cbr 210 ------- 2 3.0 2.0 11 11
+ 0.145 3 2 cbr 210 ------- 2 3.0 2.0 12 12
- 0.145 3 2 cbr 210 ------- 2 3.0 2.0 12 12
r 0.146168 3 2 cbr 210 ------- 2 3.0 2.0 12 12
+ 0.14875 3 2 cbr 210 ------- 2 3.0 2.0 13 13
- 0.14875 3 2 cbr 210 ------- 2 3.0 2.0 13 13
r 0.149918 3 2 cbr 210 ------- 2 3.0 2.0 13 13
+ 0.1525 3 2 cbr 210 ------- 2 3.0 2.0 14 14
- 0.1525 3 2 cbr 210 ------- 2 3.0 2.0 14 14
r 0.153668 3 2 cbr 210 ------- 2 3.0 2.0 14 14
+ 0.15625 3 2 cbr 210 ------- 2 3.0 2.0 15 15
- 0.15625 3 2 cbr 210 ------- 2 3.0 2.0 15 15
r 0.157418 3 2 cbr 210 ------- 2 3.0 2.0 15 15
+ 0.16 3 2 cbr 210 ------- 2 3.0 2.0 16 16
- 0.16 3 2 cbr 210 ------- 2 3.0 2.0 16 16
r 0.161168 3 2 cbr 210 ------- 2 3.0 2.0 16 16
+ 0.16375 3 2 cbr 210 ------- 2 3.0 2.0 17 17
- 0.16375 3 2 cbr 210 ------- 2 3.0 2.0 17 17
r 0.164918 3 2 cbr 210 ------- 2 3.0 2.0 17 17
+ 0.1675 3 2 cbr 210 ------- 2 3.0 2.0 18 18
- 0.1675 3 2 cbr 210 ------- 2 3.0 2.0 18 18
r 0.168668 3 2 cbr 210 ------- 2 3.0 2.0 18 18
+ 0.17125 3 2 cbr 210 ------- 2 3.0 2.0 19 19
- 0.17125 3 2 cbr 210 ------- 2 3.0 2.0 19 19
r 0.172418 3 2 cbr 210 ------- 2 3.0 2.0 19 19
+ 0.175 3 2 cbr 210 ------- 2 3.0 2.0 20 20
- 0.175 3 2 cbr 210 ------- 2 3.0 2.0 20 20
r 0.176168 3 2 cbr 210 ------- 2 3.0 2.0 20 20
+ 0.17875 3 2 cbr 210 ------- 2 3.0 2.0 21 21
- 0.17875 3 2 cbr 210 ------- 2 3.0 2.0 21 21
r 0.179918 3 2 cbr 210 ------- 2 3.0 2.0 21 21
+ 0.1825 3 2 cbr 210 ------- 2 3.0 2.0 22 22
- 0.1825 3 2 cbr 210 ------- 2 3.0 2.0 22 22
r 0.183668 3 2 cbr 210 ------- 2 3.0 2.0 22 22
+ 0.18625 3 2 cbr 210 ------- 2 3.0 2.0 23 23
- 0.18625 3 2 cbr 210 ------- 2 3.0 2.0 23 23
r 0.187418 3 2 cbr 210 ------- 2 3.0 2.0 23 23
+ 0.19 3 2 cbr 210 ------- 2 3.0 2.0 24 24
- 0.19 3 2 cbr 210 ------- 2 3.0 2.0 24 24
r 0.191168 3 2 cbr 210 ------- 2 3.0 2.0 24 24
+ 0.19375 3 2 cbr 210 ------- 2 3.0 2.0 25 25
- 0.19375 3 2 cbr 210 ------- 2 3.0 2.0 25 25
r 0.194918 3 2 cbr 210 ------- 2 3.0 2.0 25 25
+ 0.1975 3 2 cbr 210 ------- 2 3.0 2.0 26 26
- 0.1975 3 2 cbr 210 ------- 2 3.0 2.0 26 26
r 0.198668 3 2 cbr 210 ------- 2 3.0 2.0 26 26
+ 0.2 0 4 tcp 40 ------- 1 0.0 4.0 0 27
- 0.2 0 4 tcp 40 ------- 1 0.0 4.0 0 27
r 0.201032 0 4 tcp 40 ------- 1 0.0 4.0 0 27
+ 0.201032 4 0 ack 40 ------- 1 4.0 0.0 0 28
- 0.201032 4 0 ack 40 ------- 1 4.0 0.0 0 28
+ 0.20125 3 2 cbr 210 ------- 2 3.0 2.0 27 29
- 0.20125 3 2 cbr 210 ------- 2 3.0 2.0 27 29
r 0.202064 4 0 ack 40 ------- 1 4.0 0.0 0 28
+ 0.202064 0 4 tcp 1040 ------- 1 0.0 4.0 1 30
- 0.202064 0 4 tcp 1040 ------- 1 0.0 4.0 1 30
+ 0.202064 0 4 tcp 1040 ------- 1 0.0 4.0 2 31
r 0.202418 3 2 cbr 210 ------- 2 3.0 2.0 27 29
- 0.202896 0 4 tcp 1040 ------- 1 0.0 4.0 2 31
r 0.203896 0 4 tcp 1040 ------- 1 0.0 4.0 1 30
+ 0.203896 4 0 ack 40 ------- 1 4.0 0.0 1 32
- 0.203896 4 0 ack 40 ------- 1 4.0 0.0 1 32
r 0.204728 0 4 tcp 1040 ------- 1 0.0 4.0 2 31
+ 0.204728 4 0 ack 40 ------- 1 4.0 0.0 2 33
- 0.204728 4 0 ack 40 ------- 1 4.0 0.0 2 33
r 0.204928 4 0 ack 40 ------- 1 4.0 0.0 1 32
+ 0.204928 0 4 tcp 1040 ------- 1 0.0 4.0 3 34
- 0.204928 0 4 tcp 1040 ------- 1 0.0 4.0 3 34
+ 0.204928 0 4 tcp 1040 ------- 1 0.0 4.0 4 35
+ 0.205 3 2 cbr 210 ------- 2 3.0 2.0 28 36
- 0.205 3 2 cbr 210 ------- 2 3.0 2.0 28 36
r 0.20576 4 0 ack 40 ------- 1 4.0 0.0 2 33
+ 0.20576 0 4 tcp 1040 ------- 1 0.0 4.0 5 37
+ 0.20576 0 4 tcp 1040 ------- 1 0.0 4.0 6 38
- 0.20576 0 4 tcp 1040 ------- 1 0.0 4.0 4 35
r 0.206168 3 2 cbr 210 ------- 2 3.0 2.0 28 36
- 0.206592 0 4 tcp 1040 ------- 1 0.0 4.0 5 37
r 0.20676 0 4 tcp 1040 ------- 1 0.0 4.0 3 34
+ 0.20676 4 0 ack 40 ------- 1 4.0 0.0 3 39
- 0.20676 4 0 ack 40 ------- 1 4.0 0.0 3 39
- 0.207424 0 4 tcp 1040 ------- 1 0.0 4.0 6 38
r 0.207592 0 4 tcp 1040 ------- 1 0.0 4.0 4 35
+ 0.207592 4 0 ack 40 ------- 1 4.0 0.0 4 40
- 0.207592 4 0 ack 40 ------- 1 4.0 0.0 4 40
r 0.207792 4 0 ack 40 ------- 1 4.0 0.0 3 39
+ 0.207792 0 4 tcp 1040 ------- 1 0.0 4.0 7 41
+ 0.207792 0 4 tcp 1040 ------- 1 0.0 4.0 8 42
- 0.208256 0 4 tcp 1040 ------- 1 0.0 4.0 7 41
r 0.208424 0 4 tcp 1040 ------- 1 0.0 4.0 5 37
+ 0.208424 4 0 ack 40 ------- 1 4.0 0.0 5 43
- 0.208424 4 0 ack 40 ------- 1 4.0 0.0 5 43
r 0.208624 4 0 ack 40 ------- 1 4.0 0.0 4 40
+ 0.208624 0 4 tcp 1040 ------- 1 0.0 4.0 9 44
+ 0.208624 0 4 tcp 1040 ------- 1 0.0 4.0 10 45
+ 0.20875 3 2 cbr 210 ------- 2 3.0 2.0 29 46
- 0.20875 3 2 cbr 210 ------- 2 3.0 2.0 29 46
- 0.209088 0 4 tcp 1040 ------- 1 0.0 4.0 8 42
r 0.209256 0 4 tcp 1040 ------- 1 0.0 4.0 6 38
+ 0.209256 4 0 ack 40 ------- 1 4.0 0.0 6 47
- 0.209256 4 0 ack 40 ------- 1 4.0 0.0 6 47
r 0.209456 4 0 ack 40 ------- 1 4.0 0.0 5 43
+ 0.209456 0 4 tcp 1040 ------- 1 0.0 4.0 11 48
+ 0.209456 0 4 tcp 1040 ------- 1 0.0 4.0 12 49
r 0.209918 3 2 cbr 210 ------- 2 3.0 2.0 29 46
- 0.20992 0 4 tcp 1040 ------- 1 0.0 4.0 9 44
r 0.210088 0 4 tcp 1040 ------- 1 0.0 4.0 7 41
+ 0.210088 4 0 ack 40 ------- 1 4.0 0.0 7 50
- 0.210088 4 0 ack 40 ------- 1 4.0 0.0 7 50
r 0.210288 4 0 ack 40 ------- 1 4.0 0.0 6 47
+ 0.210288 0 4 tcp 1040 ------- 1 0.0 4.0 13 51
+ 0.210288 0 4 tcp 1040 ------- 1 0.0 4.0 14 52
- 0.210752 0 4 tcp 1040 ------- 1 0.0 4.0 10 45
r 0.21092 0 4 tcp 1040 ------- 1 0.0 4.0 8 42
+ 0.21092 4 0 ack 40 ------- 1 4.0 0.0 8 53
- 0.21092 4 0 ack 40 ------- 1 4.0 0.0 8 53
r 0.21112 4 0 ack 40 ------- 1 4.0 0.0 7 50
+ 0.21112 0 4 tcp 1040 ------- 1 0.0 4.0 15 54
+ 0.21112 0 4 tcp 1040 ------- 1 0.0 4.0 16 55
- 0.211584 0 4 tcp 1040 ------- 1 0.0 4.0 11 48
r 0.211752 0 4 tcp 1040 ------- 1 0.0 4.0 9 44
+ 0.211752 4 0 ack 40 ------- 1 4.0 0.0 9 56
- 0.211752 4 0 ack 40 ------- 1 4.0 0.0 9 56
r 0.211952 4 0 ack 40 ------- 1 4.0 0.0 8 53
+ 0.211952 0 4 tcp 1040 ------- 1 0.0 4.0 17 57
+ 0.211952 0 4 tcp 1040 ------- 1 0.0 4.0 18 58
- 0.212416 0 4 tcp 1040 ------- 1 0.0 4.0 12 49
+ 0.2125 3 2 cbr 210 ------- 2 3.0 2.0 30 59
- 0.2125 3 2 cbr 210 ------- 2 3.0 2.0 30 59
r 0.212584 0 4 tcp 1040 ------- 1 0.0 4.0 10 45
+ 0.212584 4 0 ack 40 ------- 1 4.0 0.0 10 60
- 0.212584 4 0 ack 40 ------- 1 4.0 0.0 10 60
r 0.212784 4 0 ack 40 ------- 1 4.0 0.0 9 56
+ 0.212784 0 4 tcp 1040 ------- 1 0.0 4.0 19 61
+ 0.212784 0 4 tcp 1040 ------- 1 0.0 4.0 20 62
- 0.213248 0 4 tcp 1040 ------- 1 0.0 4.0 13 51
r 0.213416 0 4 tcp 1040 ------- 1 0.0 4.0 11 48
+ 0.213416 4 0 ack 40 ------- 1 4.0 0.0 11 63
- 0.213416 4 0 ack 40 ------- 1 4.0 0.0 11 63
r 0.213616 4 0 ack 40 ------- 1 4.0 0.0 10 60
+ 0.213616 0 4 tcp 1040 ------- 1 0.0 4.0 21 64
+ 0.213616 0 4 tcp 1040 ------- 1 0.0 4.0 22 65
r 0.213668 3 2 cbr 210 ------- 2 3.0 2.0 30 59
- 0.21408 0 4 tcp 1040 ------- 1 0.0 4.0 14 52
r 0.214248 0 4 tcp 1040 ------- 1 0.0 4.0 12 49
+ 0.214248 4 0 ack 40 ------- 1 4.0 0.0 12 66
- 0.214248 4 0 ack 40 ------- 1 4.0 0.0 12 66
r 0.214448 4 0 ack 40 ------- 1 4.0 0.0 11 63
+ 0.214448 0 4 tcp 1040 ------- 1 0.0 4.0 23 67
+ 0.214448 0 4 tcp 1040 ------- 1 0.0 4.0 24 68
- 0.214912 0 4 tcp 1040 ------- 1 0.0 4.0 15 54
r 0.21508 0 4 tcp 1040 ------- 1 0.0 4.0 13 51
+ 0.21508 4 0 ack 40 ------- 1 4.0 0.0 13 69
- 0.21508 4 0 ack 40 ------- 1 4.0 0.0 13 69
r 0.21528 4 0 ack 40 ------- 1 4.0 0.0 12 66
+ 0.21528 0 4 tcp 1040 ------- 1 0.0 4.0 25 70
+ 0.21528 0 4 tcp 1040 ------- 1 0.0 4.0 26 71
- 0.215744 0 4 tcp 1040 ------- 1 0.0 4.0 16 55
r 0.215912 0 4 tcp 1040 ------- 1 0.0 4.0 14 52
+ 0.215912 4 0 ack 40 ------- 1 4.0 0.0 14 72
- 0.215912 4 0 ack 40 ------- 1 4.0 0.0 14 72
r 0.216112 4 0 ack 40 ------- 1 4.0 0.0 13 69
+ 0.216112 0 4 tcp 1040 ------- 1 0.0 4.0 27 73
+ 0.216112 0 4 tcp 1040 ------- 1 0.0 4.0 28 74
+ 0.21625 3 2 cbr 210 ------- 2 3.0 2.0 31 75
- 0.21625 3 2 cbr 210 ------- 2 3.0 2.0 31 75
- 0.216576 0 4 tcp 1040 ------- 1 0.0 4.0 17 57
r 0.216744 0 4 tcp 1040 ------- 1 0.0 4.0 15 54
+ 0.216744 4 0 ack 40 ------- 1 4.0 0.0 15 76
- 0.216744 4 0 ack 40 ------- 1 4.0 0.0 15 76
r 0.216944 4 0 ack 40 ------- 1 4.0 0.0 14 72
+ 0.216944 0 4 tcp 1040 ------- 1 0.0 4.0 29 77
+ 0.216944 0 4 tcp 1040 ------- 1 0.0 4.0 30 78
- 0.217408 0 4 tcp 1040 ------- 1 0.0 4.0 18 58
r 0.217418 3 2 cbr 210 ------- 2 3.0 2.0 31 75
r 0.217576 0 4 tcp 1040 ------- 1 0.0 4.0 16 55
+ 0.217576 4 0 ack 40 ------- 1 4.0 0.0 16 79
- 0.217576 4 0 ack 40 ------- 1 4.0 0.0 16 79
r 0.217776 4 0 ack 40 ------- 1 4.0 0.0 15 76
+ 0.217776 0 4 tcp 1040 ------- 1 0.0 4.0 31 80
+ 0.217776 0 4 tcp 1040 ------- 1 0.0 4.0 32 81
- 0.21824 0 4 tcp 1040 ------- 1 0.0 4.0 19 61
r 0.218408 0 4 tcp 1040 ------- 1 0.0 4.0 17 57
+ 0.218408 4 0 ack 40 ------- 1 4.0 0.0 17 82
- 0.218408 4 0 ack 40 ------- 1 4.0 0.0 17 82
r 0.218608 4 0 ack 40 ------- 1 4.0 0.0 16 79
+ 0.218608 0 4 tcp 1040 ------- 1 0.0 4.0 33 83
+ 0.218608 0 4 tcp 1040 ------- 1 0.0 4.0 34 84
- 0.219072 0 4 tcp 1040 ------- 1 0.0 4.0 20 62
r 0.21924 0 4 tcp 1040 ------- 1 0.0 4.0 18 58
+ 0.21924 4 0 ack 40 ------- 1 4.0 0.0 18 85
- 0.21924 4 0 ack 40 ------- 1 4.0 0.0 18 85
r 0.21944 4 0 ack 40 ------- 1 4.0 0.0 17 82
+ 0.21944 0 4 tcp 1040 ------- 1 0.0 4.0 35 86
+ 0.21944 0 4 tcp 1040 ------- 1 0.0 4.0 36 87
- 0.219904 0 4 tcp 1040 ------- 1 0.0 4.0 21 64
+ 0.22 3 2 cbr 210 ------- 2 3.0 2.0 32 88
- 0.22 3 2 cbr 210 ------- 2 3.0 2.0 32 88
r 0.220072 0 4 tcp 1040 ------- 1 0.0 4.0 19 61
+ 0.220072 4 0 ack 40 ------- 1 4.0 0.0 19 89
- 0.220072 4 0 ack 40 ------- 1 4.0 0.0 19 89
r 0.220272 4 0 ack 40 ------- 1 4.0 0.0 18 85
+ 0.220272 0 4 tcp 1040 ------- 1 0.0 4.0 37 90
+ 0.220272 0 4 tcp 1040 ------- 1 0.0 4.0 38 91
- 0.220736 0 4 tcp 1040 ------- 1 0.0 4.0 22 65
r 0.220904 0 4 tcp 1040 ------- 1 0.0 4.0 20 62
+ 0.220904 4 0 ack 40 ------- 1 4.0 0.0 20 92
- 0.220904 4 0 ack 40 ------- 1 4.0 0.0 20 92
r 0.221104 4 0 ack 40 ------- 1 4.0 0.0 19 89
+ 0.221104 0 4 tcp 1040 ------- 1 0.0 4.0 39 93
r 0.221168 3 2 cbr 210 ------- 2 3.0 2.0 32 88
- 0.221568 0 4 tcp 1040 ------- 1 0.0 4.0 23 67
r 0.221736 0 4 tcp 1040 ------- 1 0.0 4.0 21 64
+ 0.221736 4 0 ack 40 ------- 1 4.0 0.0 21 94
- 0.221736 4 0 ack 40 ------- 1 4.0 0.0 21 94
r 0.221936 4 0 ack 40 ------- 1 4.0 0.0 20 92
+ 0.221936 0 4 tcp 1040 ------- 1 0.0 4.0 40 95
- 0.2224 0 4 tcp 1040 ------- 1 0.0 4.0 24 68
r 0.222568 0 4 tcp 1040 ------- 1 0.0 4.0 22 65
+ 0.222568 4 0 ack 40 ------- 1 4.0 0.0 22 96
- 0.222568 4 0 ack 40 ------- 1 4.0 0.0 22 96
r 0.222768 4 0 ack 40 ------- 1 4.0 0.0 21 94
+ 0.222768 0 4 tcp 1040 ------- 1 0.0 4.0 41 97
- 0.223232 0 4 tcp 1040 ------- 1 0.0 4.0 25 70
r 0.2234 0 4 tcp 1040 ------- 1 0.0 4.0 23 67
+ 0.2234 4 0 ack 40 ------- 1 4.0 0.0 23 98
- 0.2234 4 0 ack 40 ------- 1 4.0 0.0 23 98
r 0.2236 4 0 ack 40 ------- 1 4.0 0.0 22 96
+ 0.2236 0 4 tcp 1040 ------- 1 0.0 4.0 42 99
+ 0.22375 3 2 cbr 210 ------- 2 3.0 2.0 33 100
- 0.22375 3 2 cbr 210 ------- 2 3.0 2.0 33 100
- 0.224064 0 4 tcp 1040 ------- 1 0.0 4.0 26 71
r 0.224232 0 4 tcp 1040 ------- 1 0.0 4.0 24 68
+ 0.224232 4 0 ack 40 ------- 1 4.0 0.0 24 101
- 0.224232 4 0 ack 40 ------- 1 4.0 0.0 24 101
r 0.224432 4 0 ack 40 ------- 1 4.0 0.0 23 98
+ 0.224432 0 4 tcp 1040 ------- 1 0.0 4.0 43 102
- 0.224896 0 4 tcp 1040 ------- 1 0.0 4.0 27 73
r 0.224918 3 2 cbr 210 ------- 2 3.0 2.0 33 100
r 0.225064 0 4 tcp 1040 ------- 1 0.0 4.0 25 70
+ 0.225064 4 0 ack 40 ------- 1 4.0 0.0 25 103
- 0.225064 4 0 ack 40 ------- 1 4.0 0.0 25 103
r 0.225264 4 0 ack 40 ------- 1 4.0 0.0 24 101
+ 0.225264 0 4 tcp 1040 ------- 1 0.0 4.0 44 104
- 0.225728 0 4 tcp 1040 ------- 1 0.0 4.0 28 74
r 0.225896 0 4 tcp 1040 ------- 1 0.0 4.0 26 71
+ 0.225896 4 0 ack 40 ------- 1 4.0 0.0 26 105
- 0.225896 4 0 ack 40 ------- 1 4.0 0.0 26 105
r 0.226096 4 0 ack 40 ------- 1 4.0 0.0 25 103
+ 0.226096 0 4 tcp 1040 ------- 1 0.0 4.0 45 106
- 0.22656 0 4 tcp 1040 ------- 1 0.0 4.0 29 77
r 0.226728 0 4 tcp 1040 ------- 1 0.0 4.0 27 73
+ 0.226728 4 0 ack 40 ------- 1 4.0 0.0 27 107
- 0.226728 4 0 ack 40 ------- 1 4.0 0.0 27 107
r 0.226928 4 0 ack 40 ------- 1 4.0 0.0 26 105
+ 0.226928 0 4 tcp 1040 ------- 1 0.0 4.0 46 108
- 0.227392 0 4 tcp 1040 ------- 1 0.0 4.0 30 78
+ 0.2275 3 2 cbr 210 ------- 2 3.0 2.0 34 109
- 0.2275 3 2 cbr 210 ------- 2 3.0 2.0 34 109
r 0.22756 0 4 tcp 1040 ------- 1 0.0 4.0 28 74
+ 0.22756 4 0 ack 40 ------- 1 4.0 0.0 28 110
- 0.22756 4 0 ack 40 ------- 1 4.0 0.0 28 110
r 0.22776 4 0 ack 40 ------- 1 4.0 0.0 27 107
+ 0.22776 0 4 tcp 1040 ------- 1 0.0 4.0 47 111
- 0.228224 0 4 tcp 1040 ------- 1 0.0 4.0 31 80
r 0.228392 0 4 tcp 1040 ------- 1 0.0 4.0 29 77
+ 0.228392 4 0 ack 40 ------- 1 4.0 0.0 29 112
- 0.228392 4 0 ack 40 ------- 1 4.0 0.0 29 112
r 0.228592 4 0 ack 40 ------- 1 4.0 0.0 28 110
+ 0.228592 0 4 tcp 1040 ------- 1 0.0 4.0 48 113
r 0.228668 3 2 cbr 210 ------- 2 3.0 2.0 34 109
- 0.229056 0 4 tcp 1040 ------- 1 0.0 4.0 32 81
r 0.229224 0 4 tcp 1040 ------- 1 0.0 4.0 30 78
+ 0.229224 4 0 ack 40 ------- 1 4.0 0.0 30 114
- 0.229224 4 0 ack 40 ------- 1 4.0 0.0 30 114
r 0.229424 4 0 ack 40 ------- 1 4.0 0.0 29 112
+ 0.229424 0 4 tcp 1040 ------- 1 0.0 4.0 49 115
- 0.229888 0 4 tcp 1040 ------- 1 0.0 4.0 33 83
r 0.230056 0 4 tcp 1040 ------- 1 0.0 4.0 31 80
+ 0.230056 4 0 ack 40 ------- 1 4.0 0.0 31 116
- 0.230056 4 0 ack 40 ------- 1 4.0 0.0 31 116
r 0.230256 4 0 ack 40 ------- 1 4.0 0.0 30 114
+ 0.230256 0 4 tcp 1040 ------- 1 0.0 4.0 50 117
- 0.23072 0 4 tcp 1040 ------- 1 0.0 4.0 34 84
r 0.230888 0 4 tcp 1040 ------- 1 0.0 4.0 32 81
+ 0.230888 4 0 ack 40 ------- 1 4.0 0.0 32 118
- 0.230888 4 0 ack 40 ------- 1 4.0 0.0 32 118
r 0.231088 4 0 ack 40 ------- 1 4.0 0.0 31 116
+ 0.231088 0 4 tcp 1040 ------- 1 0.0 4.0 51 119
+ 0.23125 3 2 cbr 210 ------- 2 3.0 2.0 35 120
- 0.23125 3 2 cbr 210 ------- 2 3.0 2.0 35 120
- 0.231552 0 4 tcp 1040 ------- 1 0.0 4.0 35 86
r 0.23172 0 4 tcp 1040 ------- 1 0.0 4.0 33 83
+ 0.23172 4 0 ack 40 ------- 1 4.0 0.0 33 121
- 0.23172 4 0 ack 40 ------- 1 4.0 0.0 33 121
r 0.23192 4 0 ack 40 ------- 1 4.0 0.0 32 118
+ 0.23192 0 4 tcp 1040 ------- 1 0.0 4.0 52 122
- 0.232384 0 4 tcp 1040 ------- 1 0.0 4.0 36 87
r 0.232418 3 2 cbr 210 ------- 2 3.0 2.0 35 120
r 0.232552 0 4 tcp 1040 ------- 1 0.0 4.0 34 84
+ 0.232552 4 0 ack 40 ------- 1 4.0 0.0 34 123
- 0.232552 4 0 ack 40 ------- 1 4.0 0.0 34 123
r 0.232752 4 0 ack 40 ------- 1 4.0 0.0 33 121
+ 0.232752 0 4 tcp 1040 ------- 1 0.0 4.0 53 124
- 0.233216 0 4 tcp 1040 ------- 1 0.0 4.0 37 90
r 0.233384 0 4 tcp 1040 ------- 1 0.0 4.0 35 86
+ 0.233384 4 0 ack 40 ------- 1 4.0 0.0 35 125
- 0.233384 4 0 ack 40 ------- 1 4.0 0.0 35 125
r 0.233584 4 0 ack 40 ------- 1 4.0 0.0 34 123
+ 0.233584 0 4 tcp 1040 ------- 1 0.0 4.0 54 126
- 0.234048 0 4 tcp 1040 ------- 1 0.0 4.0 38 91
r 0.234216 0 4 tcp 1040 ------- 1 0.0 4.0 36 87
+ 0.234216 4 0 ack 40 ------- 1 4.0 0.0 36 127
- 0.234216 4 0 ack 40 ------- 1 4.0 0.0 36 127
r 0.234416 4 0 ack 40 ------- 1 4.0 0.0 35 125
+ 0.234416 0 4 tcp 1040 ------- 1 0.0 4.0 55 128
- 0.23488 0 4 tcp 1040 ------- 1 0.0 4.0 39 93
+ 0.235 3 2 cbr 210 ------- 2 3.0 2.0 36 129
- 0.235 3 2 cbr 210 ------- 2 3.0 2.0 36 129
r 0.235048 0 4 tcp 1040 ------- 1 0.0 4.0 37 90
+ 0.235048 4 0 ack 40 ------- 1 4.0 0.0 37 130
- 0.235048 4 0 ack 40 ------- 1 4.0 0.0 37 130
r 0.235248 4 0 ack 40 ------- 1 4.0 0.0 36 127
+ 0.235248 0 4 tcp 1040 ------- 1 0.0 4.0 56 131
- 0.235712 0 4 tcp 1040 ------- 1 0.0 4.0 40 95
r 0.23588 0 4 tcp 1040 ------- 1 0.0 4.0 38 91
+ 0.23588 4 0 ack 40 ------- 1 4.0 0.0 38 132
- 0.23588 4 0 ack 40 ------- 1 4.0 0.0 38 132
r 0.23608 4 0 ack 40 ------- 1 4.0 0.0 37 130
+ 0.23608 0 4 tcp 1040 ------- 1 0.0 4.0 57 133
r 0.236168 3 2 cbr 210 ------- 2 3.0 2.0 36 129
- 0.236544 0 4 tcp 1040 ------- 1 0.0 4.0 41 97
r 0.236712 0 4 tcp 1040 ------- 1 0.0 4.0 39 93
+ 0.236712 4 0 ack 40 ------- 1 4.0 0.0 39 134
- 0.236712 4 0 ack 40 ------- 1 4.0 0.0 39 134
r 0.236912 4 0 ack 40 ------- 1 4.0 0.0 38 132
+ 0.236912 0 4 tcp 1040 ------- 1 0.0 4.0 58 135
- 0.237376 0 4 tcp 1040 ------- 1 0.0 4.0 42 99
r 0.237544 0 4 tcp 1040 ------- 1 0.0 4.0 40 95
+ 0.237544 4 0 ack 40 ------- 1 4.0 0.0 40 136
- 0.237544 4 0 ack 40 ------- 1 4.0 0.0 40 136
r 0.237744 4 0 ack 40 ------- 1 4.0 0.0 39 134
+ 0.237744 0 4 tcp 1040 ------- 1 0.0 4.0 59 137
- 0.238208 0 4 tcp 1040 ------- 1 0.0 4.0 43 102
r 0.238376 0 4 tcp 1040 ------- 1 0.0 4.0 41 97
+ 0.238376 4 0 ack 40 ------- 1 4.0 0.0 41 138
- 0.238376 4 0 ack 40 ------- 1 4.0 0.0 41 138
r 0.238576 4 0 ack 40 ------- 1 4.0 0.0 40 136
+ 0.238576 0 4 tcp 1040 ------- 1 0.0 4.0 60 139
+ 0.23875 3 2 cbr 210 ------- 2 3.0 2.0 37 140
- 0.23875 3 2 cbr 210 ------- 2 3.0 2.0 37 140
- 0.23904 0 4 tcp 1040 ------- 1 0.0 4.0 44 104
r 0.239208 0 4 tcp 1040 ------- 1 0.0 4.0 42 99
+ 0.239208 4 0 ack 40 ------- 1 4.0 0.0 42 141
- 0.239208 4 0 ack 40 ------- 1 4.0 0.0 42 141
r 0.239408 4 0 ack 40 ------- 1 4.0 0.0 41 138
+ 0.239408 0 4 tcp 1040 ------- 1 0.0 4.0 61 142
- 0.239872 0 4 tcp 1040 ------- 1 0.0 4.0 45 106
r 0.239918 3 2 cbr 210 ------- 2 3.0 2.0 37 140
r 0.24004 0 4 tcp 1040 ------- 1 0.0 4.0 43 102
+ 0.24004 4 0 ack 40 ------- 1 4.0 0.0 43 143
- 0.24004 4 0 ack 40 ------- 1 4.0 0.0 43 143
r 0.24024 4 0 ack 40 ------- 1 4.0 0.0 42 141
+ 0.24024 0 4 tcp 1040 ------- 1 0.0 4.0 62 144
- 0.240704 0 4 tcp 1040 ------- 1 0.0 4.0 46 108
r 0.240872 0 4 tcp 1040 ------- 1 0.0 4.0 44 104
+ 0.240872 4 0 ack 40 ------- 1 4.0 0.0 44 145
- 0.240872 4 0 ack 40 ------- 1 4.0 0.0 44 145
r 0.241072 4 0 ack 40 ------- 1 4.0 0.0 43 143
+ 0.241072 0 4 tcp 1040 ------- 1 0.0 4.0 63 146
- 0.241536 0 4 tcp 1040 ------- 1 0.0 4.0 47 111
r 0.241704 0 4 tcp 1040 ------- 1 0.0 4.0 45 106
+ 0.241704 4 0 ack 40 ------- 1 4.0 0.0 45 147
- 0.241704 4 0 ack 40 ------- 1 4.0 0.0 45 147
r 0.241904 4 0 ack 40 ------- 1 4.0 0.0 44 145
+ 0.241904 0 4 tcp 1040 ------- 1 0.0 4.0 64 148
- 0.242368 0 4 tcp 1040 ------- 1 0.0 4.0 48 113
+ 0.2425 3 2 cbr 210 ------- 2 3.0 2.0 38 149
- 0.2425 3 2 cbr 210 ------- 2 3.0 2.0 38 149
r 0.242536 0 4 tcp 1040 ------- 1 0.0 4.0 46 108
+ 0.242536 4 0 ack 40 ------- 1 4.0 0.0 46 150
- 0.242536 4 0 ack 40 ------- 1 4.0 0.0 46 150
r 0.242736 4 0 ack 40 ------- 1 4.0 0.0 45 147
+ 0.242736 0 4 tcp 1040 ------- 1 0.0 4.0 65 151
- 0.2432 0 4 tcp 1040 ------- 1 0.0 4.0 49 115
r 0.243368 0 4 tcp 1040 ------- 1 0.0 4.0 47 111
+ 0.243368 4 0 ack 40 ------- 1 4.0 0.0 47 152
- 0.243368 4 0 ack 40 ------- 1 4.0 0.0 47 152
r 0.243568 4 0 ack 40 ------- 1 4.0 0.0 46 150
+ 0.243568 0 4 tcp 1040 ------- 1 0.0 4.0 66 153
r 0.243668 3 2 cbr 210 ------- 2 3.0 2.0 38 149
- 0.244032 0 4 tcp 1040 ------- 1 0.0 4.0 50 117
r 0.2442 0 4 tcp 1040 ------- 1 0.0 4.0 48 113
+ 0.2442 4 0 ack 40 ------- 1 4.0 0.0 48 154
- 0.2442 4 0 ack 40 ------- 1 4.0 0.0 48 154
r 0.2444 4 0 ack 40 ------- 1 4.0 0.0 47 152
+ 0.2444 0 4 tcp 1040 ------- 1 0.0 4.0 67 155
- 0.244864 0 4 tcp 1040 ------- 1 0.0 4.0 51 119
r 0.245032 0 4 tcp 1040 ------- 1 0.0 4.0 49 115
+ 0.245032 4 0 ack 40 ------- 1 4.0 0.0 49 156
- 0.245032 4 0 ack 40 ------- 1 4.0 0.0 49 156
r 0.245232 4 0 ack 40 ------- 1 4.0 0.0 48 154
+ 0.245232 0 4 tcp 1040 ------- 1 0.0 4.0 68 157
- 0.245696 0 4 tcp 1040 ------- 1 0.0 4.0 52 122
r 0.245864 0 4 tcp 1040 ------- 1 0.0 4.0 50 117
+ 0.245864 4 0 ack 40 ------- 1 4.0 0.0 50 158
- 0.245864 4 0 ack 40 ------- 1 4.0 0.0 50 158
r 0.246064 4 0 ack 40 ------- 1 4.0 0.0 49 156
+ 0.246064 0 4 tcp 1040 ------- 1 0.0 4.0 69 159
+ 0.24625 3 2 cbr 210 ------- 2 3.0 2.0 39 160
- 0.24625 3 2 cbr 210 ------- 2 3.0 2.0 39 160
- 0.246528 0 4 tcp 1040 ------- 1 0.0 4.0 53 124
r 0.246696 0 4 tcp 1040 ------- 1 0.0 4.0 51 119
+ 0.246696 4 0 ack 40 ------- 1 4.0 0.0 51 161
- 0.246696 4 0 ack 40 ------- 1 4.0 0.0 51 161
r 0.246896 4 0 ack 40 ------- 1 4.0 0.0 50 158
+ 0.246896 0 4 tcp 1040 ------- 1 0.0 4.0 70 162
- 0.24736 0 4 tcp 1040 ------- 1 0.0 4.0 54 126
r 0.247418 3 2 cbr 210 ------- 2 3.0 2.0 39 160
r 0.247528 0 4 tcp 1040 ------- 1 0.0 4.0 52 122
+ 0.247528 4 0 ack 40 ------- 1 4.0 0.0 52 163
- 0.247528 4 0 ack 40 ------- 1 4.0 0.0 52 163
r 0.247728 4 0 ack 40 ------- 1 4.0 0.0 51 161
+ 0.247728 0 4 tcp 1040 ------- 1 0.0 4.0 71 164
- 0.248192 0 4 tcp 1040 ------- 1 0.0 4.0 55 128
r 0.24836 0 4 tcp 1040 ------- 1 0.0 4.0 53 124
+ 0.24836 4 0 ack 40 ------- 1 4.0 0.0 53 165
- 0.24836 4 0 ack 40 ------- 1 4.0 0.0 53 165
r 0.24856 4 0 ack 40 ------- 1 4.0 0.0 52 163
+ 0.24856 0 4 tcp 1040 ------- 1 0.0 4.0 72 166
- 0.249024 0 4 tcp 1040 ------- 1 0.0 4.0 56 131
r 0.249192 0 4 tcp 1040 ------- 1 0.0 4.0 54 126
+ 0.249192 4 0 ack 40 ------- 1 4.0 0.0 54 167
- 0.249192 4 0 ack 40 ------- 1 4.0 0.0 54 167
r 0.249392 4 0 ack 40 ------- 1 4.0 0.0 53 165
+ 0.249392 0 4 tcp 1040 ------- 1 0.0 4.0 73 168
- 0.249856 0 4 tcp 1040 ------- 1 0.0 4.0 57 133
+ 0.25 3 2 cbr 210 ------- 2 3.0 2.0 40 169
- 0.25 3 2 cbr 210 ------- 2 3.0 2.0 40 169
r 0.250024 0 4 tcp 1040 ------- 1 0.0 4.0 55 128
+ 0.250024 4 0 ack 40 ------- 1 4.0 0.0 55 170
- 0.250024 4 0 ack 40 ------- 1 4.0 0.0 55 170
r 0.250224 4 0 ack 40 ------- 1 4.0 0.0 54 167
+ 0.250224 0 4 tcp 1040 ------- 1 0.0 4.0 74 171
- 0.250688 0 4 tcp 1040 ------- 1 0.0 4.0 58 135
r 0.250856 0 4 tcp 1040 ------- 1 0.0 4.0 56 131
+ 0.250856 4 0 ack 40 ------- 1 4.0 0.0 56 172
- 0.250856 4 0 ack 40 ------- 1 4.0 0.0 56 172
r 0.251056 4 0 ack 40 ------- 1 4.0 0.0 55 170
+ 0.251056 0 4 tcp 1040 ------- 1 0.0 4.0 75 173
r 0.251168 3 2 cbr 210 ------- 2 3.0 2.0 40 169
- 0.25152 0 4 tcp 1040 ------- 1 0.0 4.0 59 137
r 0.251688 0 4 tcp 1040 ------- 1 0.0 4.0 57 133
+ 0.251688 4 0 ack 40 ------- 1 4.0 0.0 57 174
- 0.251688 4 0 ack 40 ------- 1 4.0 0.0 57 174
r 0.251888 4 0 ack 40 ------- 1 4.0 0.0 56 172
+ 0.251888 0 4 tcp 1040 ------- 1 0.0 4.0 76 175
- 0.252352 0 4 tcp 1040 ------- 1 0.0 4.0 60 139
r 0.25252 0 4 tcp 1040 ------- 1 0.0 4.0 58 135
+ 0.25252 4 0 ack 40 ------- 1 4.0 0.0 58 176
- 0.25252 4 0 ack 40 ------- 1 4.0 0.0 58 176
r 0.25272 4 0 ack 40 ------- 1 4.0 0.0 57 174
+ 0.25272 0 4 tcp 1040 ------- 1 0.0 4.0 77 177
- 0.253184 0 4 tcp 1040 ------- 1 0.0 4.0 61 142
r 0.253352 0 4 tcp 1040 ------- 1 0.0 4.0 59 137
+ 0.253352 4 0 ack 40 ------- 1 4.0 0.0 59 178
- 0.253352 4 0 ack 40 ------- 1 4.0 0.0 59 178
r 0.253552 4 0 ack 40 ------- 1 4.0 0.0 58 176
+ 0.253552 0 4 tcp 1040 ------- 1 0.0 4.0 78 179
+ 0.25375 3 2 cbr 210 ------- 2 3.0 2.0 41 180
- 0.25375 3 2 cbr 210 ------- 2 3.0 2.0 41 180
- 0.254016 0 4 tcp 1040 ------- 1 0.0 4.0 62 144
r 0.254184 0 4 tcp 1040 ------- 1 0.0 4.0 60 139
+ 0.254184 4 0 ack 40 ------- 1 4.0 0.0 60 181
- 0.254184 4 0 ack 40 ------- 1 4.0 0.0 60 181
r 0.254384 4 0 ack 40 ------- 1 4.0 0.0 59 178
+ 0.254384 0 4 tcp 1040 ------- 1 0.0 4.0 79 182
- 0.254848 0 4 tcp 1040 ------- 1 0.0 4.0 63 146
r 0.254918 3 2 cbr 210 ------- 2 3.0 2.0 41 180
r 0.255016 0 4 tcp 1040 ------- 1 0.0 4.0 61 142
+ 0.255016 4 0 ack 40 ------- 1 4.0 0.0 61 183
- 0.255016 4 0 ack 40 ------- 1 4.0 0.0 61 183
r 0.255216 4 0 ack 40 ------- 1 4.0 0.0 60 181
+ 0.255216 0 4 tcp 1040 ------- 1 0.0 4.0 80 184
- 0.25568 0 4 tcp 1040 ------- 1 0.0 4.0 64 148
r 0.255848 0 4 tcp 1040 ------- 1 0.0 4.0 62 144
+ 0.255848 4 0 ack 40 ------- 1 4.0 0.0 62 185
- 0.255848 4 0 ack 40 ------- 1 4.0 0.0 62 185
r 0.256048 4 0 ack 40 ------- 1 4.0 0.0 61 183
+ 0.256048 0 4 tcp 1040 ------- 1 0.0 4.0 81 186
- 0.256512 0 4 tcp 1040 ------- 1 0.0 4.0 65 151
r 0.25668 0 4 tcp 1040 ------- 1 0.0 4.0 63 146
+ 0.25668 4 0 ack 40 ------- 1 4.0 0.0 63 187
- 0.25668 4 0 ack 40 ------- 1 4.0 0.0 63 187
r 0.25688 4 0 ack 40 ------- 1 4.0 0.0 62 185
+ 0.25688 0 4 tcp 1040 ------- 1 0.0 4.0 82 188
- 0.257344 0 4 tcp 1040 ------- 1 0.0 4.0 66 153
+ 0.2575 3 2 cbr 210 ------- 2 3.0 2.0 42 189
- 0.2575 3 2 cbr 210 ------- 2 3.0 2.0 42 189
r 0.257512 0 4 tcp 1040 ------- 1 0.0 4.0 64 148
+ 0.257512 4 0 ack 40 ------- 1 4.0 0.0 64 190
- 0.257512 4 0 ack 40 ------- 1 4.0 0.0 64 190
r 0.257712 4 0 ack 40 ------- 1 4.0 0.0 63 187
+ 0.257712 0 4 tcp 1040 ------- 1 0.0 4.0 83 191
- 0.258176 0 4 tcp 1040 ------- 1 0.0 4.0 67 155
r 0.258344 0 4 tcp 1040 ------- 1 0.0 4.0 65 151
+ 0.258344 4 0 ack 40 ------- 1 4.0 0.0 65 192
- 0.258344 4 0 ack 40 ------- 1 4.0 0.0 65 192
r 0.258544 4 0 ack 40 ------- 1 4.0 0.0 64 190
+ 0.258544 0 4 tcp 1040 ------- 1 0.0 4.0 84 193
r 0.258668 3 2 cbr 210 ------- 2 3.0 2.0 42 189
- 0.259008 0 4 tcp 1040 ------- 1 0.0 4.0 68 157
r 0.259176 0 4 tcp 1040 ------- 1 0.0 4.0 66 153
+ 0.259176 4 0 ack 40 ------- 1 4.0 0.0 66 194
- 0.259176 4 0 ack 40 ------- 1 4.0 0.0 66 194
r 0.259376 4 0 ack 40 ------- 1 4.0 0.0 65 192
+ 0.259376 0 4 tcp 1040 ------- 1 0.0 4.0 85 195
- 0.25984 0 4 tcp 1040 ------- 1 0.0 4.0 69 159
r 0.260008 0 4 tcp 1040 ------- 1 0.0 4.0 67 155
+ 0.260008 4 0 ack 40 ------- 1 4.0 0.0 67 196
- 0.260008 4 0 ack 40 ------- 1 4.0 0.0 67 196
r 0.260208 4 0 ack 40 ------- 1 4.0 0.0 66 194
+ 0.260208 0 4 tcp 1040 ------- 1 0.0 4.0 86 197
- 0.260672 0 4 tcp 1040 ------- 1 0.0 4.0 70 162
r 0.26084 0 4 tcp 1040 ------- 1 0.0 4.0 68 157
+ 0.26084 4 0 ack 40 ------- 1 4.0 0.0 68 198
- 0.26084 4 0 ack 40 ------- 1 4.0 0.0 68 198
r 0.26104 4 0 ack 40 ------- 1 4.0 0.0 67 196
+ 0.26104 0 4 tcp 1040 ------- 1 0.0 4.0 87 199
+ 0.26125 3 2 cbr 210 ------- 2 3.0 2.0 43 200
- 0.26125 3 2 cbr 210 ------- 2 3.0 2.0 43 200
- 0.261504 0 4 tcp 1040 ------- 1 0.0 4.0 71 164
r 0.261672 0 4 tcp 1040 ------- 1 0.0 4.0 69 159
+ 0.261672 4 0 ack 40 ------- 1 4.0 0.0 69 201
- 0.261672 4 0 ack 40 ------- 1 4.0 0.0 69 201
r 0.261872 4 0 ack 40 ------- 1 4.0 0.0 68 198
+ 0.261872 0 4 tcp 1040 ------- 1 0.0 4.0 88 202
- 0.262336 0 4 tcp 1040 ------- 1 0.0 4.0 72 166
r 0.262418 3 2 cbr 210 ------- 2 3.0 2.0 43 200
r 0.262504 0 4 tcp 1040 ------- 1 0.0 4.0 70 162
+ 0.262504 4 0 ack 40 ------- 1 4.0 0.0 70 203
- 0.262504 4 0 ack 40 ------- 1 4.0 0.0 70 203
r 0.262704 4 0 ack 40 ------- 1 4.0 0.0 69 201
+ 0.262704 0 4 tcp 1040 ------- 1 0.0 4.0 89 204
- 0.263168 0 4 tcp 1040 ------- 1 0.0 4.0 73 168
r 0.263336 0 4 tcp 1040 ------- 1 0.0 4.0 71 164
+ 0.263336 4 0 ack 40 ------- 1 4.0 0.0 71 205
- 0.263336 4 0 ack 40 ------- 1 4.0 0.0 71 205
r 0.263536 4 0 ack 40 ------- 1 4.0 0.0 70 203
+ 0.263536 0 4 tcp 1040 ------- 1 0.0 4.0 90 206
- 0.264 0 4 tcp 1040 ------- 1 0.0 4.0 74 171
r 0.264168 0 4 tcp 1040 ------- 1 0.0 4.0 72 166
+ 0.264168 4 0 ack 40 ------- 1 4.0 0.0 72 207
- 0.264168 4 0 ack 40 ------- 1 4.0 0.0 72 207
r 0.264368 4 0 ack 40 ------- 1 4.0 0.0 71 205
+ 0.264368 0 4 tcp 1040 ------- 1 0.0 4.0 91 208
- 0.264832 0 4 tcp 1040 ------- 1 0.0 4.0 75 173
+ 0.265 3 2 cbr 210 ------- 2 3.0 2.0 44 209
- 0.265 3 2 cbr 210 ------- 2 3.0 2.0 44 209
r 0.265 0 4 tcp 1040 ------- 1 0.0 4.0 73 168
+ 0.265 4 0 ack 40 ------- 1 4.0 0.0 73 210
- 0.265 4 0 ack 40 ------- 1 4.0 0.0 73 210
r 0.2652 4 0 ack 40 ------- 1 4.0 0.0 72 207
+ 0.2652 0 4 tcp 1040 ------- 1 0.0 4.0 92 211
- 0.265664 0 4 tcp 1040 ------- 1 0.0 4.0 76 175
r 0.265832 0 4 tcp 1040 ------- 1 0.0 4.0 74 171
+ 0.265832 4 0 ack 40 ------- 1 4.0 0.0 74 212
- 0.265832 4 0 ack 40 ------- 1 4.0 0.0 74 212
r 0.266032 4 0 ack 40 ------- 1 4.0 0.0 73 210
+ 0.266032 0 4 tcp 1040 ------- 1 0.0 4.0 93 213
r 0.266168 3 2 cbr 210 ------- 2 3.0 2.0 44 209
- 0.266496 0 4 tcp 1040 ------- 1 0.0 4.0 77 177
r 0.266664 0 4 tcp 1040 ------- 1 0.0 4.0 75 173
+ 0.266664 4 0 ack 40 ------- 1 4.0 0.0 75 214
- 0.266664 4 0 ack 40 ------- 1 4.0 0.0 75 214
r 0.266864 4 0 ack 40 ------- 1 4.0 0.0 74 212
+ 0.266864 0 4 tcp 1040 ------- 1 0.0 4.0 94 215
- 0.267328 0 4 tcp 1040 ------- 1 0.0 4.0 78 179
r 0.267496 0 4 tcp 1040 ------- 1 0.0 4.0 76 175
+ 0.267496 4 0 ack 40 ------- 1 4.0 0.0 76 216
- 0.267496 4 0 ack 40 ------- 1 4.0 0.0 76 216
r 0.267696 4 0 ack 40 ------- 1 4.0 0.0 75 214
+ 0.267696 0 4 tcp 1040 ------- 1 0.0 4.0 95 217
- 0.26816 0 4 tcp 1040 ------- 1 0.0 4.0 79 182
r 0.268328 0 4 tcp 1040 ------- 1 0.0 4.0 77 177
+ 0.268328 4 0 ack 40 ------- 1 4.0 0.0 77 218
- 0.268328 4 0 ack 40 ------- 1 4.0 0.0 77 218
r 0.268528 4 0 ack 40 ------- 1 4.0 0.0 76 216
+ 0.268528 0 4 tcp 1040 ------- 1 0.0 4.0 96 219
+ 0.26875 3 2 cbr 210 ------- 2 3.0 2.0 45 220
- 0.26875 3 2 cbr 210 ------- 2 3.0 2.0 45 220
- 0.268992 0 4 tcp 1040 ------- 1 0.0 4.0 80 184
r 0.26916 0 4 tcp 1040 ------- 1 0.0 4.0 78 179
+ 0.26916 4 0 ack 40 ------- 1 4.0 0.0 78 221
- 0.26916 4 0 ack 40 ------- 1 4.0 0.0 78 221
r 0.26936 4 0 ack 40 ------- 1 4.0 0.0 77 218
+ 0.26936 0 4 tcp 1040 ------- 1 0.0 4.0 97 222
- 0.269824 0 4 tcp 1040 ------- 1 0.0 4.0 81 186
r 0.269918 3 2 cbr 210 ------- 2 3.0 2.0 45 220
r 0.269992 0 4 tcp 1040 ------- 1 0.0 4.0 79 182
+ 0.269992 4 0 ack 40 ------- 1 4.0 0.0 79 223
- 0.269992 4 0 ack 40 ------- 1 4.0 0.0 79 223
r 0.270192 4 0 ack 40 ------- 1 4.0 0.0 78 221
+ 0.270192 0 4 tcp 1040 ------- 1 0.0 4.0 98 224
- 0.270656 0 4 tcp 1040 ------- 1 0.0 4.0 82 188